# vtk DataFile Version 3.0
3D Elasticity Solution
ASCII
DATASET UNSTRUCTURED_GRID

POINTS 1025 float
0 0 0
0.025 0 0
0.05 0 0
0.075 0 0
0.1 0 0
0 0.025 0
0.025 0.025 0
0.05 0.025 0
0.075 0.025 0
0.1 0.025 0
0 0.05 0
0.025 0.05 0
0.05 0.05 0
0.075 0.05 0
0.1 0.05 0
0 0.075 0
0.025 0.075 0
0.05 0.075 0
0.075 0.075 0
0.1 0.075 0
0 0.1 0
0.025 0.1 0
0.05 0.1 0
0.075 0.1 0
0.1 0.1 0
0 0 0.025
0.025 0 0.025
0.05 0 0.025
0.075 0 0.025
0.1 0 0.025
0 0.025 0.025
0.025 0.025 0.025
0.05 0.025 0.025
0.075 0.025 0.025
0.1 0.025 0.025
0 0.05 0.025
0.025 0.05 0.025
0.05 0.05 0.025
0.075 0.05 0.025
0.1 0.05 0.025
0 0.075 0.025
0.025 0.075 0.025
0.05 0.075 0.025
0.075 0.075 0.025
0.1 0.075 0.025
0 0.1 0.025
0.025 0.1 0.025
0.05 0.1 0.025
0.075 0.1 0.025
0.1 0.1 0.025
0 0 0.05
0.025 0 0.05
0.05 0 0.05
0.075 0 0.05
0.1 0 0.05
0 0.025 0.05
0.025 0.025 0.05
0.05 0.025 0.05
0.075 0.025 0.05
0.1 0.025 0.05
0 0.05 0.05
0.025 0.05 0.05
0.05 0.05 0.05
0.075 0.05 0.05
0.1 0.05 0.05
0 0.075 0.05
0.025 0.075 0.05
0.05 0.075 0.05
0.075 0.075 0.05
0.1 0.075 0.05
0 0.1 0.05
0.025 0.1 0.05
0.05 0.1 0.05
0.075 0.1 0.05
0.1 0.1 0.05
0 0 0.075
0.025 0 0.075
0.05 0 0.075
0.075 0 0.075
0.1 0 0.075
0 0.025 0.075
0.025 0.025 0.075
0.05 0.025 0.075
0.075 0.025 0.075
0.1 0.025 0.075
0 0.05 0.075
0.025 0.05 0.075
0.05 0.05 0.075
0.075 0.05 0.075
0.1 0.05 0.075
0 0.075 0.075
0.025 0.075 0.075
0.05 0.075 0.075
0.075 0.075 0.075
0.1 0.075 0.075
0 0.1 0.075
0.025 0.1 0.075
0.05 0.1 0.075
0.075 0.1 0.075
0.1 0.1 0.075
0 0 0.1
0.025 0 0.1
0.05 0 0.1
0.075 0 0.1
0.1 0 0.1
0 0.025 0.1
0.025 0.025 0.1
0.05 0.025 0.1
0.075 0.025 0.1
0.1 0.025 0.1
0 0.05 0.1
0.025 0.05 0.1
0.05 0.05 0.1
0.075 0.05 0.1
0.1 0.05 0.1
0 0.075 0.1
0.025 0.075 0.1
0.05 0.075 0.1
0.075 0.075 0.1
0.1 0.075 0.1
0 0.1 0.1
0.025 0.1 0.1
0.05 0.1 0.1
0.075 0.1 0.1
0.1 0.1 0.1
0 0 0.125
0.025 0 0.125
0.05 0 0.125
0.075 0 0.125
0.1 0 0.125
0 0.025 0.125
0.025 0.025 0.125
0.05 0.025 0.125
0.075 0.025 0.125
0.1 0.025 0.125
0 0.05 0.125
0.025 0.05 0.125
0.05 0.05 0.125
0.075 0.05 0.125
0.1 0.05 0.125
0 0.075 0.125
0.025 0.075 0.125
0.05 0.075 0.125
0.075 0.075 0.125
0.1 0.075 0.125
0 0.1 0.125
0.025 0.1 0.125
0.05 0.1 0.125
0.075 0.1 0.125
0.1 0.1 0.125
0 0 0.15
0.025 0 0.15
0.05 0 0.15
0.075 0 0.15
0.1 0 0.15
0 0.025 0.15
0.025 0.025 0.15
0.05 0.025 0.15
0.075 0.025 0.15
0.1 0.025 0.15
0 0.05 0.15
0.025 0.05 0.15
0.05 0.05 0.15
0.075 0.05 0.15
0.1 0.05 0.15
0 0.075 0.15
0.025 0.075 0.15
0.05 0.075 0.15
0.075 0.075 0.15
0.1 0.075 0.15
0 0.1 0.15
0.025 0.1 0.15
0.05 0.1 0.15
0.075 0.1 0.15
0.1 0.1 0.15
0 0 0.175
0.025 0 0.175
0.05 0 0.175
0.075 0 0.175
0.1 0 0.175
0 0.025 0.175
0.025 0.025 0.175
0.05 0.025 0.175
0.075 0.025 0.175
0.1 0.025 0.175
0 0.05 0.175
0.025 0.05 0.175
0.05 0.05 0.175
0.075 0.05 0.175
0.1 0.05 0.175
0 0.075 0.175
0.025 0.075 0.175
0.05 0.075 0.175
0.075 0.075 0.175
0.1 0.075 0.175
0 0.1 0.175
0.025 0.1 0.175
0.05 0.1 0.175
0.075 0.1 0.175
0.1 0.1 0.175
0 0 0.2
0.025 0 0.2
0.05 0 0.2
0.075 0 0.2
0.1 0 0.2
0 0.025 0.2
0.025 0.025 0.2
0.05 0.025 0.2
0.075 0.025 0.2
0.1 0.025 0.2
0 0.05 0.2
0.025 0.05 0.2
0.05 0.05 0.2
0.075 0.05 0.2
0.1 0.05 0.2
0 0.075 0.2
0.025 0.075 0.2
0.05 0.075 0.2
0.075 0.075 0.2
0.1 0.075 0.2
0 0.1 0.2
0.025 0.1 0.2
0.05 0.1 0.2
0.075 0.1 0.2
0.1 0.1 0.2
0 0 0.225
0.025 0 0.225
0.05 0 0.225
0.075 0 0.225
0.1 0 0.225
0 0.025 0.225
0.025 0.025 0.225
0.05 0.025 0.225
0.075 0.025 0.225
0.1 0.025 0.225
0 0.05 0.225
0.025 0.05 0.225
0.05 0.05 0.225
0.075 0.05 0.225
0.1 0.05 0.225
0 0.075 0.225
0.025 0.075 0.225
0.05 0.075 0.225
0.075 0.075 0.225
0.1 0.075 0.225
0 0.1 0.225
0.025 0.1 0.225
0.05 0.1 0.225
0.075 0.1 0.225
0.1 0.1 0.225
0 0 0.25
0.025 0 0.25
0.05 0 0.25
0.075 0 0.25
0.1 0 0.25
0 0.025 0.25
0.025 0.025 0.25
0.05 0.025 0.25
0.075 0.025 0.25
0.1 0.025 0.25
0 0.05 0.25
0.025 0.05 0.25
0.05 0.05 0.25
0.075 0.05 0.25
0.1 0.05 0.25
0 0.075 0.25
0.025 0.075 0.25
0.05 0.075 0.25
0.075 0.075 0.25
0.1 0.075 0.25
0 0.1 0.25
0.025 0.1 0.25
0.05 0.1 0.25
0.075 0.1 0.25
0.1 0.1 0.25
0 0 0.275
0.025 0 0.275
0.05 0 0.275
0.075 0 0.275
0.1 0 0.275
0 0.025 0.275
0.025 0.025 0.275
0.05 0.025 0.275
0.075 0.025 0.275
0.1 0.025 0.275
0 0.05 0.275
0.025 0.05 0.275
0.05 0.05 0.275
0.075 0.05 0.275
0.1 0.05 0.275
0 0.075 0.275
0.025 0.075 0.275
0.05 0.075 0.275
0.075 0.075 0.275
0.1 0.075 0.275
0 0.1 0.275
0.025 0.1 0.275
0.05 0.1 0.275
0.075 0.1 0.275
0.1 0.1 0.275
0 0 0.3
0.025 0 0.3
0.05 0 0.3
0.075 0 0.3
0.1 0 0.3
0 0.025 0.3
0.025 0.025 0.3
0.05 0.025 0.3
0.075 0.025 0.3
0.1 0.025 0.3
0 0.05 0.3
0.025 0.05 0.3
0.05 0.05 0.3
0.075 0.05 0.3
0.1 0.05 0.3
0 0.075 0.3
0.025 0.075 0.3
0.05 0.075 0.3
0.075 0.075 0.3
0.1 0.075 0.3
0 0.1 0.3
0.025 0.1 0.3
0.05 0.1 0.3
0.075 0.1 0.3
0.1 0.1 0.3
0 0 0.325
0.025 0 0.325
0.05 0 0.325
0.075 0 0.325
0.1 0 0.325
0 0.025 0.325
0.025 0.025 0.325
0.05 0.025 0.325
0.075 0.025 0.325
0.1 0.025 0.325
0 0.05 0.325
0.025 0.05 0.325
0.05 0.05 0.325
0.075 0.05 0.325
0.1 0.05 0.325
0 0.075 0.325
0.025 0.075 0.325
0.05 0.075 0.325
0.075 0.075 0.325
0.1 0.075 0.325
0 0.1 0.325
0.025 0.1 0.325
0.05 0.1 0.325
0.075 0.1 0.325
0.1 0.1 0.325
0 0 0.35
0.025 0 0.35
0.05 0 0.35
0.075 0 0.35
0.1 0 0.35
0 0.025 0.35
0.025 0.025 0.35
0.05 0.025 0.35
0.075 0.025 0.35
0.1 0.025 0.35
0 0.05 0.35
0.025 0.05 0.35
0.05 0.05 0.35
0.075 0.05 0.35
0.1 0.05 0.35
0 0.075 0.35
0.025 0.075 0.35
0.05 0.075 0.35
0.075 0.075 0.35
0.1 0.075 0.35
0 0.1 0.35
0.025 0.1 0.35
0.05 0.1 0.35
0.075 0.1 0.35
0.1 0.1 0.35
0 0 0.375
0.025 0 0.375
0.05 0 0.375
0.075 0 0.375
0.1 0 0.375
0 0.025 0.375
0.025 0.025 0.375
0.05 0.025 0.375
0.075 0.025 0.375
0.1 0.025 0.375
0 0.05 0.375
0.025 0.05 0.375
0.05 0.05 0.375
0.075 0.05 0.375
0.1 0.05 0.375
0 0.075 0.375
0.025 0.075 0.375
0.05 0.075 0.375
0.075 0.075 0.375
0.1 0.075 0.375
0 0.1 0.375
0.025 0.1 0.375
0.05 0.1 0.375
0.075 0.1 0.375
0.1 0.1 0.375
0 0 0.4
0.025 0 0.4
0.05 0 0.4
0.075 0 0.4
0.1 0 0.4
0 0.025 0.4
0.025 0.025 0.4
0.05 0.025 0.4
0.075 0.025 0.4
0.1 0.025 0.4
0 0.05 0.4
0.025 0.05 0.4
0.05 0.05 0.4
0.075 0.05 0.4
0.1 0.05 0.4
0 0.075 0.4
0.025 0.075 0.4
0.05 0.075 0.4
0.075 0.075 0.4
0.1 0.075 0.4
0 0.1 0.4
0.025 0.1 0.4
0.05 0.1 0.4
0.075 0.1 0.4
0.1 0.1 0.4
0 0 0.425
0.025 0 0.425
0.05 0 0.425
0.075 0 0.425
0.1 0 0.425
0 0.025 0.425
0.025 0.025 0.425
0.05 0.025 0.425
0.075 0.025 0.425
0.1 0.025 0.425
0 0.05 0.425
0.025 0.05 0.425
0.05 0.05 0.425
0.075 0.05 0.425
0.1 0.05 0.425
0 0.075 0.425
0.025 0.075 0.425
0.05 0.075 0.425
0.075 0.075 0.425
0.1 0.075 0.425
0 0.1 0.425
0.025 0.1 0.425
0.05 0.1 0.425
0.075 0.1 0.425
0.1 0.1 0.425
0 0 0.45
0.025 0 0.45
0.05 0 0.45
0.075 0 0.45
0.1 0 0.45
0 0.025 0.45
0.025 0.025 0.45
0.05 0.025 0.45
0.075 0.025 0.45
0.1 0.025 0.45
0 0.05 0.45
0.025 0.05 0.45
0.05 0.05 0.45
0.075 0.05 0.45
0.1 0.05 0.45
0 0.075 0.45
0.025 0.075 0.45
0.05 0.075 0.45
0.075 0.075 0.45
0.1 0.075 0.45
0 0.1 0.45
0.025 0.1 0.45
0.05 0.1 0.45
0.075 0.1 0.45
0.1 0.1 0.45
0 0 0.475
0.025 0 0.475
0.05 0 0.475
0.075 0 0.475
0.1 0 0.475
0 0.025 0.475
0.025 0.025 0.475
0.05 0.025 0.475
0.075 0.025 0.475
0.1 0.025 0.475
0 0.05 0.475
0.025 0.05 0.475
0.05 0.05 0.475
0.075 0.05 0.475
0.1 0.05 0.475
0 0.075 0.475
0.025 0.075 0.475
0.05 0.075 0.475
0.075 0.075 0.475
0.1 0.075 0.475
0 0.1 0.475
0.025 0.1 0.475
0.05 0.1 0.475
0.075 0.1 0.475
0.1 0.1 0.475
0 0 0.5
0.025 0 0.5
0.05 0 0.5
0.075 0 0.5
0.1 0 0.5
0 0.025 0.5
0.025 0.025 0.5
0.05 0.025 0.5
0.075 0.025 0.5
0.1 0.025 0.5
0 0.05 0.5
0.025 0.05 0.5
0.05 0.05 0.5
0.075 0.05 0.5
0.1 0.05 0.5
0 0.075 0.5
0.025 0.075 0.5
0.05 0.075 0.5
0.075 0.075 0.5
0.1 0.075 0.5
0 0.1 0.5
0.025 0.1 0.5
0.05 0.1 0.5
0.075 0.1 0.5
0.1 0.1 0.5
0 0 0.525
0.025 0 0.525
0.05 0 0.525
0.075 0 0.525
0.1 0 0.525
0 0.025 0.525
0.025 0.025 0.525
0.05 0.025 0.525
0.075 0.025 0.525
0.1 0.025 0.525
0 0.05 0.525
0.025 0.05 0.525
0.05 0.05 0.525
0.075 0.05 0.525
0.1 0.05 0.525
0 0.075 0.525
0.025 0.075 0.525
0.05 0.075 0.525
0.075 0.075 0.525
0.1 0.075 0.525
0 0.1 0.525
0.025 0.1 0.525
0.05 0.1 0.525
0.075 0.1 0.525
0.1 0.1 0.525
0 0 0.55
0.025 0 0.55
0.05 0 0.55
0.075 0 0.55
0.1 0 0.55
0 0.025 0.55
0.025 0.025 0.55
0.05 0.025 0.55
0.075 0.025 0.55
0.1 0.025 0.55
0 0.05 0.55
0.025 0.05 0.55
0.05 0.05 0.55
0.075 0.05 0.55
0.1 0.05 0.55
0 0.075 0.55
0.025 0.075 0.55
0.05 0.075 0.55
0.075 0.075 0.55
0.1 0.075 0.55
0 0.1 0.55
0.025 0.1 0.55
0.05 0.1 0.55
0.075 0.1 0.55
0.1 0.1 0.55
0 0 0.575
0.025 0 0.575
0.05 0 0.575
0.075 0 0.575
0.1 0 0.575
0 0.025 0.575
0.025 0.025 0.575
0.05 0.025 0.575
0.075 0.025 0.575
0.1 0.025 0.575
0 0.05 0.575
0.025 0.05 0.575
0.05 0.05 0.575
0.075 0.05 0.575
0.1 0.05 0.575
0 0.075 0.575
0.025 0.075 0.575
0.05 0.075 0.575
0.075 0.075 0.575
0.1 0.075 0.575
0 0.1 0.575
0.025 0.1 0.575
0.05 0.1 0.575
0.075 0.1 0.575
0.1 0.1 0.575
0 0 0.6
0.025 0 0.6
0.05 0 0.6
0.075 0 0.6
0.1 0 0.6
0 0.025 0.6
0.025 0.025 0.6
0.05 0.025 0.6
0.075 0.025 0.6
0.1 0.025 0.6
0 0.05 0.6
0.025 0.05 0.6
0.05 0.05 0.6
0.075 0.05 0.6
0.1 0.05 0.6
0 0.075 0.6
0.025 0.075 0.6
0.05 0.075 0.6
0.075 0.075 0.6
0.1 0.075 0.6
0 0.1 0.6
0.025 0.1 0.6
0.05 0.1 0.6
0.075 0.1 0.6
0.1 0.1 0.6
0 0 0.625
0.025 0 0.625
0.05 0 0.625
0.075 0 0.625
0.1 0 0.625
0 0.025 0.625
0.025 0.025 0.625
0.05 0.025 0.625
0.075 0.025 0.625
0.1 0.025 0.625
0 0.05 0.625
0.025 0.05 0.625
0.05 0.05 0.625
0.075 0.05 0.625
0.1 0.05 0.625
0 0.075 0.625
0.025 0.075 0.625
0.05 0.075 0.625
0.075 0.075 0.625
0.1 0.075 0.625
0 0.1 0.625
0.025 0.1 0.625
0.05 0.1 0.625
0.075 0.1 0.625
0.1 0.1 0.625
0 0 0.65
0.025 0 0.65
0.05 0 0.65
0.075 0 0.65
0.1 0 0.65
0 0.025 0.65
0.025 0.025 0.65
0.05 0.025 0.65
0.075 0.025 0.65
0.1 0.025 0.65
0 0.05 0.65
0.025 0.05 0.65
0.05 0.05 0.65
0.075 0.05 0.65
0.1 0.05 0.65
0 0.075 0.65
0.025 0.075 0.65
0.05 0.075 0.65
0.075 0.075 0.65
0.1 0.075 0.65
0 0.1 0.65
0.025 0.1 0.65
0.05 0.1 0.65
0.075 0.1 0.65
0.1 0.1 0.65
0 0 0.675
0.025 0 0.675
0.05 0 0.675
0.075 0 0.675
0.1 0 0.675
0 0.025 0.675
0.025 0.025 0.675
0.05 0.025 0.675
0.075 0.025 0.675
0.1 0.025 0.675
0 0.05 0.675
0.025 0.05 0.675
0.05 0.05 0.675
0.075 0.05 0.675
[...]
POINT_DATA 1025
VECTORS displacement float
0 0 0
0 0 0
0 0 0
0 0 0
0 0 0
0 0 0
0 0 0
0 0 0
0 0 0
0 0 0
0 0 0
0 0 0
0 0 0
0 0 0
0 0 0
0 0 0
0 0 0
0 0 0
0 0 0
0 0 0
0 0 0
0 0 0
0 0 0
0 0 0
0 0 0
-1.8516e-10 0.00124997 -1.08674e-10
-2.11003e-10 0.00124997 -1.61407e-10
-1.26647e-10 0.00124997 -6.73026e-11
-6.54814e-11 0.00124997 -1.89175e-10
-5.73266e-11 0.00124997 -9.07221e-11
-1.70303e-10 0.00124997 -1.46429e-10
-1.00073e-10 0.00124997 -1.16415e-10
-8.41374e-11 0.00124997 -1.35616e-10
-7.00311e-11 0.00124997 -1.15776e-10
-4.36874e-11 0.00124997 -1.13232e-10
-1.16415e-10 0.00124997 -1.38219e-10
-1.02773e-10 0.00124997 -1.34264e-10
-7.77618e-11 0.00124998 -1.18814e-10
-9.54969e-11 0.00124998 -1.01863e-10
-6.54836e-11 0.00124998 -1.18117e-10
-2.15209e-10 0.00124997 -1.38962e-10
-1.16415e-10 0.00124997 -1.5458e-10
-8.56328e-11 0.00124998 -1.70985e-10
-8.72558e-11 0.00124997 -1.23691e-10
-1.38243e-10 0.00124998 -1.45966e-10
-1.38243e-10 0.00124997 -2.11912e-10
-1.30867e-10 0.00124998 -1.70172e-10
-6.62633e-11 0.00124998 -1.24828e-10
-1.54444e-10 0.00124998 -8.16597e-11
-3.84313e-11 0.00124998 -9.83407e-11
-3.06841e-10 0.00249995 -4.61326e-10
-2.61934e-10 0.00249995 -2.45564e-10
-2.84672e-10 0.00249995 -3.4197e-10
-5.18412e-11 0.00249995 -3.63798e-10
-1.71894e-10 0.00249995 -1.66906e-10
-2.27778e-10 0.00249995 -2.91039e-10
-2.11018e-10 0.00249995 -3.31511e-10
-1.69023e-10 0.00249995 -2.55416e-10
-2.18279e-10 0.00249995 -2.51021e-10
-1.48438e-10 0.00249995 -3.3458e-10
-2.91038e-10 0.00249995 -2.7876e-10
-1.89175e-10 0.00249995 -3.20142e-10
-1.49157e-10 0.00249995 -2.40741e-10
-2.14641e-10 0.00249995 -2.80303e-10
-1.00727e-10 0.00249995 -2.80243e-10
-2.61934e-10 0.00249995 -3.50681e-10
-2.61934e-10 0.00249995 -2.49429e-10
-1.90312e-10 0.00249995 -2.97405e-10
-2.05546e-10 0.00249995 -2.33854e-10
-3.2748e-10 0.00249995 -3.02066e-10
-4.49249e-10 0.00249995 -3.12866e-10
-2.22826e-10 0.00249995 -3.60739e-10
-1.28239e-10 0.00249995 -2.53181e-10
-2.29196e-10 0.00249995 -2.90811e-10
-3.06694e-10 0.00249995 -2.95328e-10
-2.65081e-10 0.00374993 -6.96502e-10
-3.83807e-10 0.00374993 -7.27596e-10
-2.61994e-10 0.00374993 -3.9654e-10
-3.50553e-10 0.00374992 -4.54747e-10
-4.68368e-10 0.00374992 -6.68933e-10
-1.30676e-10 0.00374993 -5.52736e-10
-3.08546e-10 0.00374993 -4.42924e-10
-2.63469e-10 0.00374993 -3.83238e-10
-2.11003e-10 0.00374993 -3.7835e-10
-3.22416e-10 0.00374992 -3.54703e-10
-5.09317e-10 0.00374993 -3.27418e-10
-2.69097e-10 0.00374993 -3.94814e-10
-3.00133e-10 0.00374993 -3.9654e-10
-3.00133e-10 0.00374993 -4.03197e-10
-2.71029e-10 0.00374992 -3.49227e-10
-4.4929e-10 0.00374992 -3.77099e-10
-4.57476e-10 0.00374992 -3.61752e-10
-2.65572e-10 0.00374993 -4.22006e-10
-3.0559e-10 0.00374992 -3.49246e-10
-3.34588e-10 0.00374992 -4.40883e-10
-5.65024e-10 0.00374992 -6.3336e-10
-3.36418e-10 0.00374993 -2.67391e-10
-5.13424e-10 0.00374992 -2.81795e-10
-3.8699e-10 0.00374993 -4.51109e-10
-2.98162e-10 0.00374992 -3.97724e-10
-6.36335e-10 0.0049999 -8.20364e-10
-4.51109e-10 0.0049999 -7.77049e-10
-3.85626e-10 0.0049999 -5.67525e-10
-3.12623e-10 0.0049999 -5.90386e-10
-4.40887e-10 0.0049999 -6.41649e-10
-4.64788e-10 0.0049999 -6.85759e-10
-4.06089e-10 0.0049999 -5.58884e-10
-3.32794e-10 0.0049999 -4.975e-10
-5.71163e-10 0.0049999 -5.78439e-10
-1.30289e-10 0.0049999 -5.0477e-10
-3.78351e-10 0.0049999 -4.18368e-10
-3.89264e-10 0.0049999 -3.79373e-10
-2.86036e-10 0.0049999 -4.51109e-10
-4.98403e-10 0.0049999 -4.47471e-10
-3.26862e-10 0.0049999 -4.82942e-10
-9.18931e-10 0.0049999 -3.5693e-10
-5.19255e-10 0.0049999 -4.07454e-10
-4.43833e-10 0.0049999 -4.86973e-10
-3.50659e-10 0.0049999 -5.74801e-10
-4.34738e-10 0.0049999 -4.03816e-10
-8.99473e-10 0.0049999 -3.67436e-10
-5.97211e-10 0.0049999 -3.40947e-10
-5.57825e-10 0.0049999 -5.19715e-10
-4.2146e-10 0.0049999 -7.05771e-10
-6.60293e-10 0.0049999 -8.19909e-10
-6.28461e-10 0.00624988 -5.32609e-10
-7.567e-10 0.00624988 -3.63798e-10
-4.56566e-10 0.00624988 -3.49252e-10
-2.32831e-10 0.00624988 -5.31527e-10
-5.53882e-10 0.00624987 -6.20275e-10
-7.3851e-10 0.00624988 -6.42139e-10
-5.3825e-10 0.00624988 -5.60249e-10
-4.36557e-10 0.00624988 -4.62023e-10
-4.80213e-10 0.00624988 -3.7835e-10
-3.12866e-10 0.00624988 -4.37046e-10
-5.80258e-10 0.00624987 -5.3843e-10
-6.6575e-10 0.00624988 -6.28277e-10
-4.15412e-10 0.00624988 -4.74752e-10
-4.94765e-10 0.00624987 -5.52973e-10
-3.81078e-10 0.00624987 -4.37922e-10
-6.03904e-10 0.00624988 -4.57724e-10
-5.96115e-10 0.00624987 -4.34144e-10
-4.87653e-10 0.00624988 -5.62575e-10
-5.0386e-10 0.00624987 -4.73382e-10
-5.11628e-10 0.00624987 -6.40284e-10
-6.43564e-10 0.00624987 -7.40329e-10
-5.831e-10 0.00624988 -3.98586e-10
-6.69388e-10 0.00624988 -5.24778e-10
-6.62103e-10 0.00624987 -5.90262e-10
-2.63381e-10 0.00624987 -5.73501e-10
-2.81943e-10 0.00749985 -6.93035e-10
-7.88989e-10 0.00749985 -5.12273e-10
-4.07454e-10 0.00749985 -8.11042e-10
-6.31829e-10 0.00749985 -4.60599e-10
-1.35318e-09 0.00749985 -7.06905e-10
-1.1496e-09 0.00749985 -7.59515e-10
-6.41649e-10 0.00749985 -7.21631e-10
-4.50427e-10 0.00749985 -3.81988e-10
-7.22366e-10 0.00749985 -6.25732e-10
-2.91038e-10 0.00749985 -9.40698e-10
-1.1794e-09 0.00749985 -5.81393e-10
-6.18456e-10 0.00749985 -6.92881e-10
-4.94765e-10 0.00749985 -4.96874e-10
-4.5473e-10 0.00749985 -5.36925e-10
-1.36899e-10 0.00749985 -6.1209e-10
-8.60837e-10 0.00749985 -7.64544e-10
-7.82165e-10 0.00749985 -5.45235e-10
-6.76664e-10 0.00749985 -6.56655e-10
-2.65572e-10 0.00749985 -5.38416e-10
-3.49228e-10 0.00749985 -4.52928e-10
-1.36788e-09 0.00749985 -3.76531e-10
-8.11269e-10 0.00749985 -4.03816e-10
-6.76664e-10 0.00749985 -3.56522e-10
-5.09318e-10 0.00749985 -9.3678e-10
-3.9031e-10 0.00749985 -8.01939e-10
-1.10595e-09 0.00874983 -8.07177e-10
-3.16504e-10 0.00874983 -9.25561e-10
-1.16422e-10 0.00874983 -7.69433e-10
-4.00178e-10 0.00874983 -4.25644e-10
-1.14073e-09 0.00874982 -1.17871e-09
-6.75094e-10 0.00874983 -8.27137e-10
-5.45697e-10 0.00874983 -6.40464e-10
-5.23869e-10 0.00874983 -7.62874e-10
-4.36557e-10 0.00874983 -5.89115e-10
-8.90855e-10 0.00874983 -8.0513e-10
-9.24956e-10 0.00874983 -9.1487e-10
-7.31596e-10 0.00874983 -8.14907e-10
-5.96629e-10 0.00874983 -6.56229e-10
-3.43334e-10 0.00874983 -6.14254e-10
-5.15612e-10 0.00874983 -6.20275e-10
-1.1816e-09 0.00874982 -6.99179e-10
-8.56744e-10 0.00874982 -6.76664e-10
-5.62295e-10 0.00874983 -6.32168e-10
-6.54836e-10 0.00874982 -4.36557e-10
9.28821e-11 0.00874983 -7.70342e-10
-1.43915e-09 0.00874982 -8.91171e-10
-6.27551e-10 0.00874982 -9.16793e-10
-5.39561e-10 0.00874982 -5.82077e-10
-4.74301e-10 0.00874982 -7.94838e-10
-1.09162e-09 0.00874982 -4.80668e-10
-6.98492e-10 0.0099998 -1.13369e-09
-9.02219e-10 0.0099998 -5.66388e-10
-6.40284e-10 0.00999981 -4.07455e-10
-4.16509e-10 0.0099998 -3.5601e-10
-2.94676e-10 0.00999981 -3.21052e-10
-6.69388e-10 0.0099998 -6.82121e-10
-5.23869e-10 0.0099998 -8.23093e-10
-2.61934e-10 0.0099998 -5.56611e-10
-3.4197e-10 0.00999981 -3.83807e-10
2.00388e-11 0.0099998 -6.82235e-10
-1.09812e-09 0.0099998 -9.05604e-10
-6.42103e-10 0.0099998 -6.40284e-10
-2.16815e-10 0.0099998 -5.46552e-10
-3.16504e-10 0.0099998 -4.22089e-10
-1.38243e-10 0.0099998 -2.44881e-10
-8.90623e-10 0.0099998 -8.93124e-10
-5.82077e-10 0.0099998 -5.77984e-10
-3.65617e-10 0.0099998 -4.47471e-10
-4.07454e-10 0.0099998 -7.23958e-10
-3.12866e-10 0.0099998 -1.74686e-10
-7.5087e-10 0.0099998 -1.02955e-09
-6.91635e-10 0.0099998 -5.27102e-10
-8.18545e-10 0.0099998 -6.71489e-10
-7.7125e-10 0.0099998 -3.53793e-10
-5.02041e-10 0.0099998 -4.67432e-10
-1.46283e-09 0.0112498 -3.22864e-10
-6.69388e-10 0.0112498 -1.08532e-09
-3.27418e-10 0.0112498 -4.94771e-10
-8.73115e-11 0.0112498 -2.41305e-10
-1.9179e-10 0.0112498 -7.09406e-10
-2.91038e-10 0.0112498 -1.36868e-09
-6.89397e-10 0.0112498 -5.17048e-10
-2.61934e-10 0.0112498 -4.19163e-10
-1.42134e-10 0.0112498 -4.63281e-10
-2.6921e-10 0.0112498 -9.33937e-11
-5.52532e-10 0.0112498 -7.34872e-10
-3.54521e-10 0.0112498 -7.567e-10
-4.49574e-10 0.0112498 -5.02041e-10
-1.74623e-10 0.0112498 -4.57874e-10
5.96629e-10 0.0112498 -2.77165e-10
-3.34694e-10 0.0112498 -6.30394e-10
-4.87489e-10 0.0112498 -5.67525e-10
-3.6971e-10 0.0112498 -4.87503e-10
-3.16504e-10 0.0112498 -8.2764e-10
1.81899e-10 0.0112498 -4.47471e-10
-2.91038e-10 0.0112498 -6.69246e-10
-4.38604e-10 0.0112498 -2.4037e-10
-2.45063e-10 0.0112498 -7.57107e-10
-5.74768e-10 0.0112498 -3.49247e-10
-8.5794e-10 0.0112498 -8.41656e-10
1.98838e-10 0.0124998 -2.10275e-09
-6.69388e-10 0.0124998 -9.30413e-10
-7.42404e-10 0.0124998 -6.5711e-10
7.27596e-11 0.0124998 -4.98187e-10
-1.27658e-10 0.0124998 -6.73765e-10
-4.47471e-10 0.0124998 -1.31695e-09
-2.78305e-10 0.0124998 -8.84825e-10
-5.27507e-11 0.0124998 -5.00222e-10
-7.27596e-12 0.0124998 -5.22647e-10
6.76664e-10 0.0124998 -3.45267e-10
-5.38424e-10 0.0124998 -1.13508e-09
-2.80124e-10 0.0124998 -9.48217e-10
-2.1646e-10 0.0124998 -7.71986e-10
-2.18279e-11 0.0124998 -6.63931e-10
6.54836e-11 0.0124998 -5.38572e-10
-1.10603e-09 0.0124998 -8.7978e-10
-2.83762e-10 0.0124998 -5.57975e-10
-1.05501e-10 0.0124998 -6.86384e-10
-2.72848e-10 0.0124998 -8.25503e-10
1.93211e-10 0.0124998 -9.00968e-10
-1.04856e-09 0.0124998 -8.11962e-10
-7.59428e-11 0.0124998 -9.49362e-10
-6.89397e-10 0.0124998 -9.23236e-10
-8.72876e-10 0.0124998 -7.6389e-10
-3.96184e-10 0.0124998 -1.74077e-09
-4.39968e-10 0.0137497 -1.70777e-09
-7.567e-10 0.0137497 -5.57926e-10
-8.36735e-11 0.0137497 -7.06677e-10
4.07454e-10 0.0137497 -5.54891e-10
6.46313e-10 0.0137497 -7.7921e-10
3.76303e-11 0.0137497 -1.006e-09
-1.74623e-10 0.0137497 -1.1064e-09
8.73115e-11 0.0137497 -7.97224e-10
2.14641e-10 0.0137497 -9.7183e-10
3.20142e-10 0.0137497 -8.09024e-10
-1.16415e-10 0.0137497 -1.20963e-09
1.23691e-10 0.0137497 -1.00205e-09
7.27596e-11 0.0137497 -7.55488e-10
-2.91038e-10 0.0137497 -7.82165e-10
2.04323e-10 0.0137497 -7.16682e-10
1.45519e-10 0.0137497 -1.28058e-09
-1.45519e-10 0.0137497 -8.82816e-10
-5.04125e-11 0.0137497 -6.74651e-10
-4.1473e-10 0.0137497 -9.8953e-10
1.16415e-10 0.0137497 -1.02955e-09
1.17143e-09 0.0137497 -1.54887e-09
5.38421e-10 0.0137497 -1.15688e-09
-3.49246e-10 0.0137497 -1.14233e-09
-9.24047e-10 0.0137497 -4.38532e-10
4.6318e-10 0.0137497 -1.62254e-09
7.1072e-10 0.0149997 -3.89264e-10
3.45608e-10 0.0149997 -8.17581e-10
8.44011e-10 0.0149997 -9.39932e-10
8.14744e-10 0.0149997 -1.76055e-09
9.52996e-10 0.0149997 -2.15641e-09
2.32826e-10 0.0149997 -7.85803e-10
1.89175e-10 0.0149997 -8.79959e-10
2.65572e-10 0.0149997 -9.24644e-10
1.16415e-10 0.0149997 -1.02006e-09
2.91067e-11 0.0149997 -1.84014e-09
4.07452e-10 0.0149997 -7.567e-10
2.03727e-10 0.0149997 -1.10595e-09
2.32831e-10 0.0149997 -9.44082e-10
-1.81899e-10 0.0149997 -1.06229e-09
1.89175e-10 0.0149997 -1.65873e-09
1.89175e-10 0.0149997 -1.47884e-09
2.98314e-10 0.0149997 -8.87667e-10
8.00355e-11 0.0149997 -1.04774e-09
-7.27596e-12 0.0149997 -1.33878e-09
-3.3242e-10 0.0149997 -1.88356e-09
1.2073e-09 0.0149997 -1.45935e-09
4.65661e-10 0.0149997 -1.151e-09
5.82077e-10 0.0149997 -9.15234e-10
-2.91038e-10 0.0149997 -1.39701e-09
1.81899e-10 0.0149997 -2.01976e-09
7.95563e-10 0.0162497 -4.28599e-10
8.29459e-10 0.0162497 -9.00372e-10
3.02975e-11 0.0162497 -1.68809e-09
7.99233e-10 0.0162497 -1.63129e-09
5.17502e-10 0.0162497 -2.85581e-09
4.94765e-10 0.0162497 -1.18872e-09
1.74623e-10 0.0162497 -1.0059e-09
-1.32786e-10 0.0162497 -1.05501e-09
-1.16415e-10 0.0162497 -1.74896e-09
-3.88128e-10 0.0162497 -1.59854e-09
2.22343e-10 0.0162497 -1.21599e-09
9.45874e-11 0.0162497 -1.1496e-09
8.00355e-11 0.0162497 -1.21599e-09
1.1778e-10 0.0162497 -1.40926e-09
7.27596e-11 0.0162497 -1.77079e-09
1.16415e-10 0.0162497 -1.27443e-09
3.72893e-10 0.0162497 -1.1052e-09
2.91038e-10 0.0162497 -9.94078e-10
1.81899e-10 0.0162497 -1.92267e-09
5.88521e-10 0.0162497 -1.95412e-09
-2.18279e-10 0.0162497 -1.24248e-09
1.00408e-09 0.0162497 -1.57888e-09
5.89353e-10 0.0162497 -1.92813e-09
2.36895e-11 0.0162497 -1.52047e-09
2.00998e-10 0.0162497 -3.04681e-09
7.79367e-10 0.0174997 -6.00721e-10
-5.65706e-10 0.0174997 -1.04989e-09
-9.0217e-11 0.0174997 -1.66318e-09
-2.18279e-10 0.0174997 -1.98974e-09
1.37618e-09 0.0174997 -2.13186e-09
-8.24157e-10 0.0174997 -5.88288e-10
-2.5284e-10 0.0174997 -1.27329e-09
-1.85537e-10 0.0174997 -1.50135e-09
9.54969e-11 0.0174997 -1.33241e-09
2.6937e-10 0.0174997 -2.50888e-09
2.14641e-10 0.0174997 -1.51485e-09
-1.74623e-10 0.0174997 -1.33878e-09
3.0559e-10 0.0174997 -1.29087e-09
-5.52973e-10 0.0174997 -1.73964e-09
1.24281e-09 0.0174997 -2.40016e-09
1.46816e-10 0.0174997 -1.47804e-09
8.00355e-11 0.0174997 -1.11264e-09
1.33696e-10 0.0174997 -1.29229e-09
3.49246e-10 0.0174997 -1.86267e-09
5.82077e-11 0.0174997 -2.07523e-09
2.58478e-09 0.0174997 -3.05772e-09
1.15703e-09 0.0174997 -1.96815e-09
-1.76064e-10 0.0174997 -1.27761e-09
4.96611e-10 0.0174997 -1.73532e-09
1.47874e-09 0.0174997 -2.43517e-09
1.13073e-09 0.0187497 -1.49311e-09
-4.79289e-10 0.0187497 -1.00371e-09
-3.6769e-10 0.0187497 -1.55947e-09
-1.03804e-10 0.0187497 -2.71975e-09
-1.97906e-09 0.0187497 -3.835e-09
-1.27198e-10 0.0187497 -9.92941e-10
-3.52884e-10 0.0187497 -1.06957e-09
-3.49246e-10 0.0187497 -1.31375e-09
-2.03727e-10 0.0187497 -1.69511e-09
-3.97677e-10 0.0187497 -2.20147e-09
3.02079e-10 0.0187497 -8.24787e-10
-1.38243e-10 0.0187497 -1.19326e-09
-2.35027e-10 0.0187497 -1.45519e-09
-1.45519e-10 0.0187497 -1.43251e-09
4.00178e-11 0.0187497 -1.84328e-09
2.25819e-11 0.0187497 -1.88205e-09
-2.50111e-11 0.0187497 -1.36788e-09
3.2378e-10 0.0187497 -1.37106e-09
1.96451e-10 0.0187497 -1.62981e-09
2.94335e-10 0.0187497 -1.67392e-09
1.62981e-09 0.0187497 -2.48713e-09
2.83762e-10 0.0187497 -2.12168e-09
5.67525e-10 0.0187497 -1.48998e-09
-3.40001e-10 0.0187497 -8.48104e-10
1.02967e-09 0.0187497 -2.57205e-09
1.18423e-09 0.0199997 -1.59343e-09
-1.30967e-10 0.0199997 -1.44018e-09
-5.74801e-10 0.0199997 -1.68835e-09
-8.26688e-10 0.0199997 -1.74099e-09
6.90079e-11 0.0199997 -4.32738e-09
7.42095e-10 0.0199997 -1.55891e-09
5.45697e-11 0.0199997 -1.31733e-09
-6.14818e-10 0.0199997 -1.25601e-09
-6.99345e-10 0.0199997 -1.74522e-09
-4.62925e-10 0.0199997 -2.28465e-09
5.4551e-10 0.0199997 -1.12651e-09
-1.74623e-10 0.0199997 -1.22782e-09
-1.52795e-10 0.0199997 -1.79375e-09
3.63798e-11 0.0199997 -1.3752e-09
1.99179e-10 0.0199997 -8.78572e-10
1.04046e-09 0.0199997 -1.41699e-09
1.16415e-10 0.0199997 -1.49106e-09
1.81899e-10 0.0199997 -1.89902e-09
4.36557e-10 0.0199997 -1.26965e-09
1.39739e-09 0.0199997 -1.36899e-09
-8.30083e-10 0.0199997 -2.92851e-09
1.30967e-09 0.0199997 -3.71449e-10
-5.88021e-11 0.0199997 -1.1286e-09
5.01764e-10 0.0199997 -1.86353e-09
8.12179e-10 0.0199997 -1.31149e-09
1.6247e-09 0.0212496 -1.04495e-09
2.32863e-10 0.0212496 -1.96761e-09
-4.65631e-10 0.0212497 -1.05888e-09
4.65653e-10 0.0212496 -2.3108e-09
-8.06267e-10 0.0212496 -2.27737e-09
-1.09697e-09 0.0212496 -1.14697e-09
3.66072e-10 0.0212497 -1.03437e-09
-4.65661e-10 0.0212497 -1.39476e-09
-8.73115e-10 0.0212496 -1.30967e-09
-3.8483e-11 0.0212496 -1.54978e-09
3.17245e-10 0.0212496 -8.78713e-10
-1.56433e-10 0.0212497 -8.69477e-10
2.91038e-10 0.0212497 -1.05354e-09
-1.4603e-10 0.0212496 -1.16415e-09
1.20053e-10 0.0212496 -1.44064e-09
-1.74623e-10 0.0212496 -5.97833e-10
4.94765e-10 0.0212497 -1.17871e-09
1.29603e-10 0.0212496 -8.24174e-10
3.92902e-10 0.0212496 -1.21508e-09
5.43318e-10 0.0212496 -5.52063e-10
1.82714e-09 0.0212496 -1.35815e-09
1.56177e-11 0.0212496 -1.21651e-09
1.80388e-09 0.0212496 -9.57334e-10
5.40012e-13 0.0212496 -7.96689e-10
2.80488e-09 0.0212496 -3.20142e-09
2.05992e-09 0.0224996 -1.72531e-09
-9.24347e-10 0.0224996 -1.33892e-09
4.04157e-11 0.0224996 -9.92173e-10
4.57312e-10 0.0224996 -2.73386e-09
1.74623e-10 0.0224996 -2.36937e-09
2.11976e-10 0.0224996 -1.52011e-09
1.16413e-09 0.0224996 -1.30634e-09
-1.74623e-10 0.0224996 -1.37334e-09
-7.567e-10 0.0224996 -1.73895e-09
-1.90539e-09 0.0224996 -1.43336e-09
3.25372e-10 0.0224996 -1.16688e-09
2.40107e-10 0.0224996 -1.25692e-09
6.40284e-10 0.0224996 -9.85892e-10
-9.89504e-10 0.0224996 -1.54275e-09
-5.59794e-10 0.0224996 -1.89868e-09
4.5085e-10 0.0224996 -1.39698e-09
1.05909e-09 0.0224996 -7.60701e-10
5.74326e-10 0.0224996 -6.77119e-10
1.62868e-10 0.0224996 -8.73149e-10
-6.1118e-10 0.0224996 -1.30687e-09
-1.27109e-09 0.0224996 -5.87761e-11
6.45741e-11 0.0224996 -5.24523e-10
-4.87489e-10 0.0224996 -1.67347e-09
-1.67347e-10 0.0224996 -6.8394e-10
-2.77815e-09 0.0224996 -1.47304e-09
1.31308e-10 0.0237496 -5.09317e-11
-8.14907e-10 0.0237496 -2.28829e-09
-7.12078e-10 0.0237496 -1.4438e-09
-8.73115e-10 0.0237496 -1.89621e-09
-2.32831e-09 0.0237496 -2.37243e-09
1.55705e-09 0.0237496 -1.05588e-09
-2.61934e-10 0.0237496 -1.68802e-09
-5.45697e-12 0.0237496 -1.24146e-09
-1.04046e-09 0.0237496 -2.05505e-09
-3.15777e-09 0.0237496 -1.90234e-09
1.44788e-10 0.0237496 -1.64128e-09
8.44011e-10 0.0237496 -1.01863e-09
-3.50155e-10 0.0237496 -1.66475e-09
-4.58385e-10 0.0237496 -1.36329e-09
-3.22516e-09 0.0237496 -2.03727e-09
1.97906e-09 0.0237496 -4.54102e-10
5.75162e-10 0.0237496 -6.02377e-10
1.04788e-10 0.0237496 -1.33547e-09
-9.31323e-10 0.0237496 -1.89175e-09
-2.37757e-10 0.0237496 -1.17416e-09
-1.02619e-09 0.0237496 -5.20913e-10
1.32422e-09 0.0237496 5.91194e-10
1.08886e-09 0.0237496 -1.00568e-10
-2.07546e-10 0.0237496 -1.50686e-09
-2.88128e-09 0.0237496 -2.11003e-09
-6.98492e-10 0.0249996 -3.24347e-09
-1.16415e-09 0.0249996 -1.21477e-09
-3.12866e-10 0.0249996 -2.24342e-09
-1.20053e-10 0.0249996 -2.02023e-09
-1.54378e-09 0.0249996 -2.79397e-09
0 0.0249996 -1.79157e-09
-5.23568e-10 0.0249996 -1.86265e-09
-4.65661e-10 0.0249996 -1.89614e-09
-1.12414e-09 0.0249996 -1.57161e-09
-6.80302e-10 0.0249996 -1.18517e-09
6.94854e-10 0.0249996 -1.27329e-09
-1.52795e-10 0.0249996 -1.31496e-09
-2.61934e-10 0.0249996 -1.47128e-09
-1.28057e-09 0.0249996 -1.66956e-09
-1.20053e-09 0.0249996 -1.05501e-09
6.76664e-10 0.0249996 -5.71163e-10
5.96629e-10 0.0249996 -1.21189e-09
2.45564e-11 0.0249996 -1.3176e-09
-8.44011e-10 0.0249996 -1.98112e-09
-1.05501e-09 0.0249996 -2.3482e-09
1.86992e-09 0.0249996 -2.40428e-09
1.59525e-09 0.0249996 1.31157e-10
-1.89175e-10 0.0249996 -1.78375e-09
-1.53887e-09 0.0249996 -2.32831e-09
-1.08116e-09 0.0249996 -9.98313e-10
-7.51243e-10 0.0262496 -2.93949e-09
-1.94028e-09 0.0262496 -1.94632e-09
-3.17755e-10 0.0262496 -2.76627e-09
-2.61934e-10 0.0262496 -1.5425e-09
-1.04425e-09 0.0262496 -6.74491e-10
-5.18811e-10 0.0262496 -2.15368e-09
-6.8394e-10 0.0262496 -1.94996e-09
-1.04349e-09 0.0262496 -1.68266e-09
-1.32422e-09 0.0262496 -1.39698e-09
-3.87488e-10 0.0262496 -6.8002e-10
8.54925e-11 0.0262496 -1.77202e-09
-8.00355e-11 0.0262496 -1.72622e-09
-5.61158e-10 0.0262496 -1.73168e-09
-1.25146e-09 0.0262496 -8.93873e-10
-1.64437e-09 0.0262496 -2.73758e-09
1.03557e-09 0.0262496 -1.8646e-09
1.8008e-10 0.0262496 -1.47702e-09
-8.45603e-10 0.0262496 -1.58636e-09
-1.71713e-09 0.0262496 -2.54489e-09
-6.94854e-10 0.0262496 -2.11591e-09
-5.6707e-10 0.0262496 -8.64929e-10
-1.93713e-10 0.0262496 -2.32831e-09
-2.95724e-10 0.0262496 -2.63753e-09
-1.68143e-09 0.0262496 -1.48259e-09
-1.23304e-09 0.0262496 -2.80124e-09
-1.80444e-09 0.0274996 -2.82307e-09
-2.8454e-09 0.0274996 -2.81396e-09
-2.24672e-09 0.0274996 -1.98543e-09
-2.96967e-10 0.0274996 -1.7717e-09
-1.56118e-09 0.0274996 -2.75577e-09
3.72893e-10 0.0274996 -2.05078e-09
-6.33008e-10 0.0274996 -2.20715e-09
-6.98498e-10 0.0274996 -1.45519e-09
-8.73115e-10 0.0274996 -1.97654e-09
-7.96618e-10 0.0274996 -1.28558e-09
-1.04865e-09 0.0274996 -2.97663e-09
-2.80621e-10 0.0274996 -2.23503e-09
-5.8255e-10 0.0274996 -1.89717e-09
-8.22183e-10 0.0274996 -1.39698e-09
-8.07631e-10 0.0274996 -2.08529e-09
1.74623e-10 0.0274996 -2.43314e-09
-8.66011e-10 0.0274996 -2.38674e-09
-1.51341e-09 0.0274996 -2.40501e-09
-1.16457e-09 0.0274996 -2.28843e-09
-3.60887e-09 0.0274996 -2.24743e-09
-1.85241e-09 0.0274996 -2.53203e-09
-1.28057e-09 0.0274996 -2.35018e-09
-1.78049e-09 0.0274996 -2.24491e-09
-3.11411e-09 0.0274996 -2.21798e-09
-8.73115e-11 0.0274996 -3.89082e-09
-1.23691e-09 0.0287496 -1.91631e-09
-1.62981e-09 0.0287496 -2.13045e-09
-1.39698e-09 0.0287496 -9.00893e-10