<?xml version="1.0"?>
<VTKFile type="UnstructuredGrid" version="0.1" byte_order="LittleEndian">
<UnstructuredGrid>
<Piece NumberOfPoints="1025" NumberOfCells="640">
<Points>
<DataArray type="Float32" NumberOfComponents="3" format="ascii">
0 0 0
0.025 0 0
0.05 0 0
0.075 0 0
0.1 0 0
0 0.025 0
0.025 0.025 0
0.05 0.025 0
0.075 0.025 0
0.1 0.025 0
0 0.05 0
0.025 0.05 0
0.05 0.05 0
0.075 0.05 0
0.1 0.05 0
0 0.075 0
0.025 0.075 0
0.05 0.075 0
0.075 0.075 0
0.1 0.075 0
0 0.1 0
0.025 0.1 0
0.05 0.1 0
0.075 0.1 0
0.1 0.1 0
0 0 0.025
0.025 0 0.025
0.05 0 0.025
0.075 0 0.025
0.1 0 0.025
0 0.025 0.025
0.025 0.025 0.025
0.05 0.025 0.025
0.075 0.025 0.025
0.1 0.025 0.025
0 0.05 0.025
0.025 0.05 0.025
0.05 0.05 0.025
0.075 0.05 0.025
0.1 0.05 0.025
0 0.075 0.025
0.025 0.075 0.025
0.05 0.075 0.025
0.075 0.075 0.025
0.1 0.075 0.025
0 0.1 0.025
0.025 0.1 0.025
0.05 0.1 0.025
0.075 0.1 0.025
0.1 0.1 0.025
0 0 0.05
0.025 0 0.05
0.05 0 0.05
0.075 0 0.05
0.1 0 0.05
0 0.025 0.05
0.025 0.025 0.05
0.05 0.025 0.05
0.075 0.025 0.05
0.1 0.025 0.05
0 0.05 0.05
0.025 0.05 0.05
0.05 0.05 0.05
0.075 0.05 0.05
0.1 0.05 0.05
0 0.075 0.05
0.025 0.075 0.05
0.05 0.075 0.05
0.075 0.075 0.05
0.1 0.075 0.05
0 0.1 0.05
0.025 0.1 0.05
0.05 0.1 0.05
0.075 0.1 0.05
0.1 0.1 0.05
0 0 0.075
0.025 0 0.075
0.05 0 0.075
0.075 0 0.075
0.1 0 0.075
0 0.025 0.075
0.025 0.025 0.075
0.05 0.025 0.075
0.075 0.025 0.075
0.1 0.025 0.075
0 0.05 0.075
0.025 0.05 0.075
0.05 0.05 0.075
0.075 0.05 0.075
0.1 0.05 0.075
0 0.075 0.075
0.025 0.075 0.075
0.05 0.075 0.075
0.075 0.075 0.075
0.1 0.075 0.075
0 0.1 0.075
0.025 0.1 0.075
0.05 0.1 0.075
0.075 0.1 0.075
0.1 0.1 0.075
0 0 0.1
0.025 0 0.1
0.05 0 0.1
0.075 0 0.1
0.1 0 0.1
0 0.025 0.1
0.025 0.025 0.1
0.05 0.025 0.1
0.075 0.025 0.1
0.1 0.025 0.1
0 0.05 0.1
0.025 0.05 0.1
0.05 0.05 0.1
0.075 0.05 0.1
0.1 0.05 0.1
0 0.075 0.1
0.025 0.075 0.1
0.05 0.075 0.1
0.075 0.075 0.1
0.1 0.075 0.1
0 0.1 0.1
0.025 0.1 0.1
0.05 0.1 0.1
0.075 0.1 0.1
0.1 0.1 0.1
0 0 0.125
0.025 0 0.125
0.05 0 0.125
0.075 0 0.125
0.1 0 0.125
0 0.025 0.125
0.025 0.025 0.125
0.05 0.025 0.125
0.075 0.025 0.125
0.1 0.025 0.125
0 0.05 0.125
0.025 0.05 0.125
0.05 0.05 0.125
0.075 0.05 0.125
0.1 0.05 0.125
0 0.075 0.125
0.025 0.075 0.125
0.05 0.075 0.125
0.075 0.075 0.125
0.1 0.075 0.125
0 0.1 0.125
0.025 0.1 0.125
0.05 0.1 0.125
0.075 0.1 0.125
0.1 0.1 0.125
0 0 0.15
0.025 0 0.15
0.05 0 0.15
0.075 0 0.15
0.1 0 0.15
0 0.025 0.15
0.025 0.025 0.15
0.05 0.025 0.15
0.075 0.025 0.15
0.1 0.025 0.15
0 0.05 0.15
0.025 0.05 0.15
0.05 0.05 0.15
0.075 0.05 0.15
0.1 0.05 0.15
0 0.075 0.15
0.025 0.075 0.15
0.05 0.075 0.15
0.075 0.075 0.15
0.1 0.075 0.15
0 0.1 0.15
0.025 0.1 0.15
0.05 0.1 0.15
0.075 0.1 0.15
0.1 0.1 0.15
0 0 0.175
0.025 0 0.175
0.05 0 0.175
0.075 0 0.175
0.1 0 0.175
0 0.025 0.175
0.025 0.025 0.175
0.05 0.025 0.175
0.075 0.025 0.175
0.1 0.025 0.175
0 0.05 0.175
0.025 0.05 0.175
0.05 0.05 0.175
0.075 0.05 0.175
0.1 0.05 0.175
0 0.075 0.175
0.025 0.075 0.175
0.05 0.075 0.175
0.075 0.075 0.175
0.1 0.075 0.175
0 0.1 0.175
0.025 0.1 0.175
0.05 0.1 0.175
0.075 0.1 0.175
0.1 0.1 0.175
0 0 0.2
0.025 0 0.2
0.05 0 0.2
0.075 0 0.2
0.1 0 0.2
0 0.025 0.2
0.025 0.025 0.2
0.05 0.025 0.2
0.075 0.025 0.2
0.1 0.025 0.2
0 0.05 0.2
0.025 0.05 0.2
0.05 0.05 0.2
0.075 0.05 0.2
0.1 0.05 0.2
0 0.075 0.2
0.025 0.075 0.2
0.05 0.075 0.2
0.075 0.075 0.2
0.1 0.075 0.2
0 0.1 0.2
0.025 0.1 0.2
0.05 0.1 0.2
0.075 0.1 0.2
0.1 0.1 0.2
0 0 0.225
0.025 0 0.225
0.05 0 0.225
0.075 0 0.225
0.1 0 0.225
0 0.025 0.225
0.025 0.025 0.225
0.05 0.025 0.225
0.075 0.025 0.225
0.1 0.025 0.225
0 0.05 0.225
0.025 0.05 0.225
0.05 0.05 0.225
0.075 0.05 0.225
0.1 0.05 0.225
0 0.075 0.225
0.025 0.075 0.225
0.05 0.075 0.225
0.075 0.075 0.225
0.1 0.075 0.225
0 0.1 0.225
0.025 0.1 0.225
0.05 0.1 0.225
0.075 0.1 0.225
0.1 0.1 0.225
0 0 0.25
0.025 0 0.25
0.05 0 0.25
0.075 0 0.25
0.1 0 0.25
0 0.025 0.25
0.025 0.025 0.25
0.05 0.025 0.25
0.075 0.025 0.25
0.1 0.025 0.25
0 0.05 0.25
0.025 0.05 0.25
0.05 0.05 0.25
0.075 0.05 0.25
0.1 0.05 0.25
0 0.075 0.25
0.025 0.075 0.25
0.05 0.075 0.25
0.075 0.075 0.25
0.1 0.075 0.25
0 0.1 0.25
0.025 0.1 0.25
0.05 0.1 0.25
0.075 0.1 0.25
0.1 0.1 0.25
0 0 0.275
0.025 0 0.275
0.05 0 0.275
0.075 0 0.275
0.1 0 0.275
0 0.025 0.275
0.025 0.025 0.275
0.05 0.025 0.275
0.075 0.025 0.275
0.1 0.025 0.275
0 0.05 0.275
0.025 0.05 0.275
0.05 0.05 0.275
0.075 0.05 0.275
0.1 0.05 0.275
0 0.075 0.275
0.025 0.075 0.275
0.05 0.075 0.275
0.075 0.075 0.275
0.1 0.075 0.275
0 0.1 0.275
0.025 0.1 0.275
0.05 0.1 0.275
0.075 0.1 0.275
0.1 0.1 0.275
0 0 0.3
0.025 0 0.3
0.05 0 0.3
0.075 0 0.3
0.1 0 0.3
0 0.025 0.3
0.025 0.025 0.3
0.05 0.025 0.3
0.075 0.025 0.3
0.1 0.025 0.3
0 0.05 0.3
0.025 0.05 0.3
0.05 0.05 0.3
0.075 0.05 0.3
0.1 0.05 0.3
0 0.075 0.3
0.025 0.075 0.3
0.05 0.075 0.3
0.075 0.075 0.3
0.1 0.075 0.3
0 0.1 0.3
0.025 0.1 0.3
0.05 0.1 0.3
0.075 0.1 0.3
0.1 0.1 0.3
0 0 0.325
0.025 0 0.325
0.05 0 0.325
0.075 0 0.325
0.1 0 0.325
0 0.025 0.325
0.025 0.025 0.325
0.05 0.025 0.325
0.075 0.025 0.325
0.1 0.025 0.325
0 0.05 0.325
0.025 0.05 0.325
0.05 0.05 0.325
0.075 0.05 0.325
0.1 0.05 0.325
0 0.075 0.325
0.025 0.075 0.325
0.05 0.075 0.325
0.075 0.075 0.325
0.1 0.075 0.325
0 0.1 0.325
0.025 0.1 0.325
0.05 0.1 0.325
0.075 0.1 0.325
0.1 0.1 0.325
0 0 0.35
0.025 0 0.35
0.05 0 0.35
0.075 0 0.35
0.1 0 0.35
0 0.025 0.35
0.025 0.025 0.35
0.05 0.025 0.35
0.075 0.025 0.35
0.1 0.025 0.35
0 0.05 0.35
0.025 0.05 0.35
0.05 0.05 0.35
0.075 0.05 0.35
0.1 0.05 0.35
0 0.075 0.35
0.025 0.075 0.35
0.05 0.075 0.35
0.075 0.075 0.35
0.1 0.075 0.35
0 0.1 0.35
0.025 0.1 0.35
0.05 0.1 0.35
0.075 0.1 0.35
0.1 0.1 0.35
0 0 0.375
0.025 0 0.375
0.05 0 0.375
0.075 0 0.375
0.1 0 0.375
0 0.025 0.375
0.025 0.025 0.375
0.05 0.025 0.375
0.075 0.025 0.375
0.1 0.025 0.375
0 0.05 0.375
0.025 0.05 0.375
0.05 0.05 0.375
0.075 0.05 0.375
0.1 0.05 0.375
0 0.075 0.375
0.025 0.075 0.375
0.05 0.075 0.375
0.075 0.075 0.375
0.1 0.075 0.375
0 0.1 0.375
0.025 0.1 0.375
0.05 0.1 0.375
0.075 0.1 0.375
0.1 0.1 0.375
0 0 0.4
0.025 0 0.4
0.05 0 0.4
0.075 0 0.4
0.1 0 0.4
0 0.025 0.4
0.025 0.025 0.4
0.05 0.025 0.4
0.075 0.025 0.4
0.1 0.025 0.4
0 0.05 0.4
0.025 0.05 0.4
0.05 0.05 0.4
0.075 0.05 0.4
0.1 0.05 0.4
0 0.075 0.4
0.025 0.075 0.4
0.05 0.075 0.4
0.075 0.075 0.4
0.1 0.075 0.4
0 0.1 0.4
0.025 0.1 0.4
0.05 0.1 0.4
0.075 0.1 0.4
0.1 0.1 0.4
0 0 0.425
0.025 0 0.425
0.05 0 0.425
0.075 0 0.425
0.1 0 0.425
0 0.025 0.425
0.025 0.025 0.425
0.05 0.025 0.425
0.075 0.025 0.425
0.1 0.025 0.425
0 0.05 0.425
0.025 0.05 0.425
0.05 0.05 0.425
0.075 0.05 0.425
0.1 0.05 0.425
0 0.075 0.425
0.025 0.075 0.425
0.05 0.075 0.425
0.075 0.075 0.425
0.1 0.075 0.425
0 0.1 0.425
0.025 0.1 0.425
0.05 0.1 0.425
0.075 0.1 0.425
0.1 0.1 0.425
0 0 0.45
0.025 0 0.45
0.05 0 0.45
0.075 0 0.45
0.1 0 0.45
0 0.025 0.45
0.025 0.025 0.45
0.05 0.025 0.45
0.075 0.025 0.45
0.1 0.025 0.45
0 0.05 0.45
0.025 0.05 0.45
0.05 0.05 0.45
0.075 0.05 0.45
0.1 0.05 0.45
0 0.075 0.45
0.025 0.075 0.45
0.05 0.075 0.45
0.075 0.075 0.45
0.1 0.075 0.45
0 0.1 0.45
0.025 0.1 0.45
0.05 0.1 0.45
0.075 0.1 0.45
0.1 0.1 0.45
0 0 0.475
0.025 0 0.475
0.05 0 0.475
0.075 0 0.475
0.1 0 0.475
0 0.025 0.475
0.025 0.025 0.475
0.05 0.025 0.475
0.075 0.025 0.475
0.1 0.025 0.475
0 0.05 0.475
0.025 0.05 0.475
0.05 0.05 0.475
0.075 0.05 0.475
0.1 0.05 0.475
0 0.075 0.475
0.025 0.075 0.475
0.05 0.075 0.475
0.075 0.075 0.475
0.1 0.075 0.475
0 0.1 0.475
0.025 0.1 0.475
0.05 0.1 0.475
0.075 0.1 0.475
0.1 0.1 0.475
0 0 0.5
0.025 0 0.5
0.05 0 0.5
0.075 0 0.5
0.1 0 0.5
0 0.025 0.5
0.025 0.025 0.5
0.05 0.025 0.5
0.075 0.025 0.5
0.1 0.025 0.5
0 0.05 0.5
0.025 0.05 0.5
0.05 0.05 0.5
0.075 0.05 0.5
0.1 0.05 0.5
0 0.075 0.5
0.025 0.075 0.5
0.05 0.075 0.5
0.075 0.075 0.5
0.1 0.075 0.5
0 0.1 0.5
0.025 0.1 0.5
0.05 0.1 0.5
0.075 0.1 0.5
0.1 0.1 0.5
0 0 0.525
0.025 0 0.525
0.05 0 0.525
0.075 0 0.525
0.1 0 0.525
0 0.025 0.525
0.025 0.025 0.525
0.05 0.025 0.525
0.075 0.025 0.525
0.1 0.025 0.525
0 0.05 0.525
0.025 0.05 0.525
0.05 0.05 0.525
0.075 0.05 0.525
0.1 0.05 0.525
0 0.075 0.525
0.025 0.075 0.525
0.05 0.075 0.525
0.075 0.075 0.525
0.1 0.075 0.525
0 0.1 0.525
0.025 0.1 0.525
0.05 0.1 0.525
0.075 0.1 0.525
0.1 0.1 0.525
0 0 0.55
0.025 0 0.55
0.05 0 0.55
0.075 0 0.55
0.1 0 0.55
0 0.025 0.55
0.025 0.025 0.55
0.05 0.025 0.55
0.075 0.025 0.55
0.1 0.025 0.55
0 0.05 0.55
0.025 0.05 0.55
0.05 0.05 0.55
0.075 0.05 0.55
0.1 0.05 0.55
0 0.075 0.55
0.025 0.075 0.55
0.05 0.075 0.55
0.075 0.075 0.55
0.1 0.075 0.55
0 0.1 0.55
0.025 0.1 0.55
0.05 0.1 0.55
0.075 0.1 0.55
0.1 0.1 0.55
0 0 0.575
0.025 0 0.575
0.05 0 0.575
0.075 0 0.575
0.1 0 0.575
0 0.025 0.575
0.025 0.025 0.575
0.05 0.025 0.575
0.075 0.025 0.575
0.1 0.025 0.575
0 0.05 0.575
0.025 0.05 0.575
0.05 0.05 0.575
0.075 0.05 0.575
0.1 0.05 0.575
0 0.075 0.575
0.025 0.075 0.575
0.05 0.075 0.575
0.075 0.075 0.575
0.1 0.075 0.575
0 0.1 0.575
0.025 0.1 0.575
0.05 0.1 0.575
0.075 0.1 0.575
0.1 0.1 0.575
0 0 0.6
0.025 0 0.6
0.05 0 0.6
0.075 0 0.6
0.1 0 0.6
0 0.025 0.6
0.025 0.025 0.6
0.05 0.025 0.6
0.075 0.025 0.6
0.1 0.025 0.6
0 0.05 0.6
0.025 0.05 0.6
0.05 0.05 0.6
0.075 0.05 0.6
0.1 0.05 0.6
0 0.075 0.6
0.025 0.075 0.6
0.05 0.075 0.6
0.075 0.075 0.6
0.1 0.075 0.6
0 0.1 0.6
0.025 0.1 0.6
0.05 0.1 0.6
0.075 0.1 0.6
0.1 0.1 0.6
0 0 0.625
0.025 0 0.625
0.05 0 0.625
0.075 0 0.625
0.1 0 0.625
0 0.025 0.625
0.025 0.025 0.625
0.05 0.025 0.625
0.075 0.025 0.625
0.1 0.025 0.625
0 0.05 0.625
0.025 0.05 0.625
0.05 0.05 0.625
0.075 0.05 0.625
0.1 0.05 0.625
0 0.075 0.625
0.025 0.075 0.625
0.05 0.075 0.625
0.075 0.075 0.625
0.1 0.075 0.625
0 0.1 0.625
0.025 0.1 0.625
0.05 0.1 0.625
0.075 0.1 0.625
0.1 0.1 0.625
0 0 0.65
0.025 0 0.65
0.05 0 0.65
0.075 0 0.65
0.1 0 0.65
0 0.025 0.65
0.025 0.025 0.65
0.05 0.025 0.65
0.075 0.025 0.65
0.1 0.025 0.65
0 0.05 0.65
0.025 0.05 0.65
0.05 0.05 0.65
0.075 0.05 0.65
0.1 0.05 0.65
0 0.075 0.65
0.025 0.075 0.65
0.05 0.075 0.65
0.075 0.075 0.65
0.1 0.075 0.65
0 0.1 0.65
0.025 0.1 0.65
0.05 0.1 0.65
0.075 0.1 0.65
0.1 0.1 0.65
0 0 0.675
0.025 0 0.675
0.05 0 0.675
0.075 0 0.675
0.1 0 0.675
[...]
<PointData Vectors="Displacement">
<DataArray type="Float32" Name="Displacement" NumberOfComponents="3" format="ascii">
0 0 0
0 0 0
0 0 0
0 0 0
0 0 0
0 0 0
0 0 0
0 0 0
0 0 0
0 0 0
0 0 0
0 0 0
0 0 0
0 0 0
0 0 0
0 0 0
0 0 0
0 0 0
0 0 0
0 0 0
0 0 0
0 0 0
0 0 0
0 0 0
0 0 0
1.82336e-10 0.00117369 3.16555e-10
1.31092e-10 0.00117368 3.15577e-10
1.15807e-10 0.00117368 3.15123e-10
7.47253e-11 0.00117368 3.06766e-10
3.03982e-11 0.00117368 2.93166e-10
1.78501e-10 0.00117368 3.15429e-10
1.35962e-10 0.00117368 3.09301e-10
1.10016e-10 0.00117368 3.03733e-10
7.70076e-11 0.00117368 3.11229e-10
3.40861e-11 0.00117368 3.09488e-10
1.8626e-10 0.00117368 3.02214e-10
1.29702e-10 0.00117368 3.1259e-10
1.02433e-10 0.00117368 3.02464e-10
7.84359e-11 0.00117368 3.13117e-10
2.5698e-11 0.00117368 3.11995e-10
2.13692e-10 0.00117368 3.29985e-10
1.27084e-10 0.00117368 3.30866e-10
1.06939e-10 0.00117368 3.26671e-10
6.62113e-11 0.00117368 3.21422e-10
-9.16986e-12 0.00117368 3.28978e-10
2.28164e-10 0.00117368 3.5046e-10
1.44299e-10 0.00117368 3.20424e-10
9.04971e-11 0.00117368 3.41927e-10
6.35729e-11 0.00117368 3.46204e-10
-1.93512e-13 0.00117368 3.37697e-10
3.19981e-10 0.00234786 6.67343e-10
2.67889e-10 0.00234786 6.87929e-10
2.36999e-10 0.00234786 6.73026e-10
1.64095e-10 0.00234786 6.32186e-10
1.41276e-10 0.00234786 6.3791e-10
2.99285e-10 0.00234786 6.6473e-10
2.66685e-10 0.00234786 6.47648e-10
2.29604e-10 0.00234786 6.6531e-10
1.88501e-10 0.00234786 6.57208e-10
1.37548e-10 0.00234786 6.47074e-10
3.24509e-10 0.00234786 6.5389e-10
2.72378e-10 0.00234786 6.70363e-10
2.16106e-10 0.00234786 6.50719e-10
1.68848e-10 0.00234786 6.68992e-10
1.42202e-10 0.00234786 6.69191e-10
3.52785e-10 0.00234786 6.71122e-10
2.58732e-10 0.00234786 6.63362e-10
2.20737e-10 0.00234786 6.86474e-10
1.33789e-10 0.00234786 6.83913e-10
1.03339e-10 0.00234786 6.69685e-10
3.82473e-10 0.00234786 6.71204e-10
2.88812e-10 0.00234786 6.87132e-10
2.08037e-10 0.00234786 7.1566e-10
1.52313e-10 0.00234786 7.06585e-10
5.21418e-11 0.00234786 6.77401e-10
3.90567e-10 0.00352302 1.07818e-09
4.51057e-10 0.00352301 1.0923e-09
3.33748e-10 0.00352301 1.1058e-09
2.76801e-10 0.00352301 1.1118e-09
2.89536e-10 0.00352301 1.0845e-09
4.69877e-10 0.00352301 1.06537e-09
3.96785e-10 0.00352301 1.06485e-09
3.76298e-10 0.00352301 1.06988e-09
2.97371e-10 0.00352301 1.11682e-09
2.99867e-10 0.00352301 1.07993e-09
4.72264e-10 0.00352301 1.06877e-09
4.0246e-10 0.00352301 1.07858e-09
3.53373e-10 0.00352301 1.1056e-09
3.10057e-10 0.00352301 1.07426e-09
2.69282e-10 0.00352301 1.06568e-09
5.16232e-10 0.00352301 1.05798e-09
4.35564e-10 0.00352301 1.07573e-09
3.41532e-10 0.00352301 1.0943e-09
2.7513e-10 0.00352301 1.10578e-09
1.98172e-10 0.00352301 1.09078e-09
5.13693e-10 0.00352301 1.0484e-09
4.32415e-10 0.00352301 1.05432e-09
3.22372e-10 0.00352301 1.03917e-09
2.83999e-10 0.00352301 1.08151e-09
1.6801e-10 0.00352301 1.06695e-09
6.51918e-10 0.00469963 1.57219e-09
5.72152e-10 0.00469963 1.53784e-09
5.47291e-10 0.00469963 1.51735e-09
4.84336e-10 0.00469963 1.503e-09
4.84727e-10 0.00469963 1.56492e-09
6.02353e-10 0.00469963 1.57574e-09
5.85785e-10 0.00469963 1.50715e-09
5.62806e-10 0.00469963 1.55535e-09
4.54171e-10 0.00469963 1.56322e-09
4.53919e-10 0.00469963 1.57326e-09
6.2225e-10 0.00469963 1.53581e-09
5.77278e-10 0.00469963 1.55209e-09
5.53267e-10 0.00469963 1.56383e-09
4.54781e-10 0.00469963 1.59262e-09
4.77315e-10 0.00469963 1.57674e-09
6.60108e-10 0.00469963 1.55876e-09
5.9728e-10 0.00469963 1.54091e-09
5.14968e-10 0.00469963 1.54709e-09
4.327e-10 0.00469963 1.56469e-09
3.92414e-10 0.00469963 1.56879e-09
6.93529e-10 0.00469963 1.54744e-09
6.07162e-10 0.00469963 1.5191e-09
5.58172e-10 0.00469963 1.51212e-09
4.40437e-10 0.00469963 1.53385e-09
3.31145e-10 0.00469963 1.56792e-09
8.19977e-10 0.00587818 2.19585e-09
7.53658e-10 0.00587818 2.13906e-09
7.49566e-10 0.00587818 2.04469e-09
6.80667e-10 0.00587818 2.13499e-09
6.04095e-10 0.00587818 2.13881e-09
7.56311e-10 0.00587818 2.15921e-09
7.79669e-10 0.00587818 2.14925e-09
7.72373e-10 0.00587818 2.11487e-09
6.75996e-10 0.00587818 2.13873e-09
6.83674e-10 0.00587818 2.18837e-09
8.13256e-10 0.00587818 2.13272e-09
7.6181e-10 0.00587818 2.16226e-09
7.82823e-10 0.00587818 2.15694e-09
6.54562e-10 0.00587818 2.16998e-09
6.28098e-10 0.00587818 2.22033e-09
8.59105e-10 0.00587818 2.15248e-09
7.80547e-10 0.00587818 2.15456e-09
7.57337e-10 0.00587818 2.16574e-09
6.34111e-10 0.00587818 2.16818e-09
5.70898e-10 0.00587818 2.17214e-09
9.02472e-10 0.00587818 2.20464e-09
8.2049e-10 0.00587818 2.18358e-09
6.67911e-10 0.00587818 2.26379e-09
5.97667e-10 0.00587818 2.13893e-09
5.1969e-10 0.00587818 2.1885e-09
1.2679e-09 0.00705912 2.88128e-09
9.04764e-10 0.00705912 2.84363e-09
1.02192e-09 0.00705912 2.77768e-09
8.99386e-10 0.00705912 2.75674e-09
8.22812e-10 0.00705912 2.83694e-09
1.08971e-09 0.00705912 2.86903e-09
9.97233e-10 0.00705912 2.87703e-09
9.86912e-10 0.00705912 2.82967e-09
9.024e-10 0.00705912 2.81493e-09
8.40528e-10 0.00705912 2.85014e-09
9.28472e-10 0.00705912 2.91864e-09
1.02659e-09 0.00705912 2.84385e-09
9.99526e-10 0.00705912 2.80123e-09
9.10684e-10 0.00705912 2.84346e-09
7.64448e-10 0.00705912 2.80221e-09
1.05228e-09 0.00705912 2.89126e-09
1.00533e-09 0.00705912 2.91229e-09
9.92361e-10 0.00705912 2.86519e-09
9.02099e-10 0.00705912 2.827e-09
7.65248e-10 0.00705912 2.79859e-09
1.14704e-09 0.00705912 2.91749e-09
1.0241e-09 0.00705912 2.89353e-09
1.01424e-09 0.00705912 2.81991e-09
7.73467e-10 0.00705912 2.97778e-09
8.72103e-10 0.00705912 2.80389e-09
1.23577e-09 0.0082429 3.67925e-09
1.35983e-09 0.0082429 3.64123e-09
1.21137e-09 0.0082429 3.72616e-09
1.17313e-09 0.0082429 3.51474e-09
9.97719e-10 0.0082429 3.60898e-09
1.2891e-09 0.0082429 3.6668e-09
1.26818e-09 0.0082429 3.64533e-09
1.22191e-09 0.0082429 3.62014e-09
1.16637e-09 0.0082429 3.60013e-09
1.02196e-09 0.0082429 3.53951e-09
1.47369e-09 0.0082429 3.7837e-09
1.23315e-09 0.0082429 3.67938e-09
1.18128e-09 0.0082429 3.64946e-09
1.16013e-09 0.0082429 3.60246e-09
1.10548e-09 0.0082429 3.61007e-09
1.29416e-09 0.0082429 3.68477e-09
1.32065e-09 0.0082429 3.71389e-09
1.21575e-09 0.0082429 3.5644e-09
1.11337e-09 0.0082429 3.60099e-09
1.14331e-09 0.0082429 3.51569e-09
1.37712e-09 0.0082429 3.65754e-09
1.31731e-09 0.0082429 3.63726e-09
1.2433e-09 0.0082429 3.59844e-09
1.19385e-09 0.0082429 3.65398e-09
9.40774e-10 0.0082429 3.60373e-09
1.75546e-09 0.00942993 4.58488e-09
1.57856e-09 0.00942993 4.68501e-09
1.58564e-09 0.00942993 4.48248e-09
1.31501e-09 0.00942993 4.39877e-09
1.33453e-09 0.00942993 4.51451e-09
1.59016e-09 0.00942993 4.70974e-09
1.64853e-09 0.00942993 4.60066e-09
1.51838e-09 0.00942993 4.58668e-09
1.35338e-09 0.00942993 4.56249e-09
1.42624e-09 0.00942993 4.4654e-09
1.56157e-09 0.00942993 4.53344e-09
1.55433e-09 0.00942993 4.59149e-09
1.56436e-09 0.00942993 4.49125e-09
1.33118e-09 0.00942993 4.5357e-09
1.52754e-09 0.00942993 4.49543e-09
1.74878e-09 0.00942993 4.65821e-09
1.60074e-09 0.00942993 4.57628e-09
1.52231e-09 0.00942993 4.54529e-09
1.39593e-09 0.00942993 4.49797e-09
1.38794e-09 0.00942993 4.51764e-09
1.87538e-09 0.00942993 4.64263e-09
1.60571e-09 0.00942993 4.49249e-09
1.57167e-09 0.00942993 4.41628e-09
1.46408e-09 0.00942993 4.48011e-09
1.62575e-09 0.00942993 4.58143e-09
2.21729e-09 0.0106206 5.55569e-09
1.92761e-09 0.0106206 5.39402e-09
1.76526e-09 0.0106206 5.42521e-09
1.54827e-09 0.0106206 5.48684e-09
1.76392e-09 0.0106206 5.38569e-09
2.11487e-09 0.0106206 5.48918e-09
1.88308e-09 0.0106206 5.56781e-09
1.71439e-09 0.0106206 5.45095e-09
1.65306e-09 0.0106206 5.45506e-09
1.59936e-09 0.0106206 5.40624e-09
2.03412e-09 0.0106206 5.47192e-09
1.92113e-09 0.0106206 5.47827e-09
1.90462e-09 0.0106206 5.46892e-09
1.68683e-09 0.0106206 5.4668e-09
1.6548e-09 0.0106206 5.59994e-09
2.06601e-09 0.0106206 5.44506e-09
1.96269e-09 0.0106206 5.51836e-09
1.8668e-09 0.0106206 5.45006e-09
1.82788e-09 0.0106206 5.56138e-09
1.69279e-09 0.0106206 5.58263e-09
2.38273e-09 0.0106206 5.61138e-09
2.01679e-09 0.0106206 5.44909e-09
1.85095e-09 0.0106206 5.63102e-09
1.84055e-09 0.0106206 5.54639e-09
1.64513e-09 0.0106206 5.51893e-09
2.53027e-09 0.0118153 6.36891e-09
2.24492e-09 0.0118153 6.47904e-09
2.05442e-09 0.0118153 6.17751e-09
1.98693e-09 0.0118153 6.2483e-09
1.81442e-09 0.0118153 6.70694e-09
2.2519e-09 0.0118153 6.47582e-09
2.2413e-09 0.0118153 6.38533e-09
2.15511e-09 0.0118153 6.42847e-09
1.88057e-09 0.0118153 6.44269e-09
1.99163e-09 0.0118153 6.49193e-09
2.2505e-09 0.0118153 6.47766e-09
2.26054e-09 0.0118153 6.55983e-09
2.03184e-09 0.0118153 6.52419e-09
2.03002e-09 0.0118153 6.53827e-09
2.03305e-09 0.0118153 6.43019e-09
2.30642e-09 0.0118153 6.51673e-09
2.21629e-09 0.0118153 6.48723e-09
2.19484e-09 0.0118153 6.57118e-09
2.04e-09 0.0118153 6.51701e-09
1.95791e-09 0.0118153 6.53322e-09
2.4315e-09 0.0118153 6.75964e-09
2.23982e-09 0.0118153 6.55843e-09
2.37804e-09 0.0118153 6.59412e-09
1.94336e-09 0.0118153 6.64088e-09
1.97284e-09 0.0118153 6.51187e-09
2.96098e-09 0.0130144 7.4526e-09
2.51125e-09 0.0130144 7.49984e-09
2.4052e-09 0.0130144 7.60626e-09
2.3144e-09 0.0130144 7.73682e-09
2.07567e-09 0.0130144 7.80712e-09
2.65742e-09 0.0130144 7.5891e-09
2.56092e-09 0.0130144 7.58607e-09
2.38966e-09 0.0130144 7.5703e-09
2.33417e-09 0.0130144 7.58786e-09
2.11653e-09 0.0130144 7.69114e-09
2.37791e-09 0.0130144 7.77799e-09
2.58666e-09 0.0130144 7.55801e-09
2.4209e-09 0.0130144 7.59194e-09
2.17145e-09 0.0130144 7.65314e-09
2.54799e-09 0.0130144 7.72419e-09
2.51323e-09 0.0130144 7.68593e-09
2.45096e-09 0.0130144 7.78105e-09
2.39172e-09 0.0130144 7.57478e-09
2.38866e-09 0.0130144 7.71911e-09
2.22168e-09 0.0130144 7.62981e-09
2.3611e-09 0.0130144 7.71526e-09
2.40038e-09 0.0130144 7.66185e-09
2.27716e-09 0.0130144 7.59043e-09
2.53478e-09 0.0130144 7.45856e-09
2.0674e-09 0.0130144 7.65053e-09
2.89092e-09 0.0142181 8.71848e-09
2.98154e-09 0.0142181 8.84658e-09
2.69753e-09 0.0142181 9.10484e-09
2.49761e-09 0.0142181 8.60683e-09
2.19281e-09 0.0142181 8.62776e-09
3.00572e-09 0.0142181 8.78209e-09
2.89142e-09 0.0142181 8.79907e-09
2.64895e-09 0.0142181 8.78661e-09
2.41662e-09 0.0142181 8.76825e-09
2.37647e-09 0.0142181 8.71203e-09
3.13681e-09 0.0142181 8.74235e-09
2.69214e-09 0.0142181 8.72444e-09
2.75483e-09 0.0142181 8.63952e-09
2.51012e-09 0.0142181 8.80167e-09
2.31173e-09 0.0142181 8.83228e-09
2.95942e-09 0.0142181 8.7225e-09
2.74324e-09 0.0142181 8.76618e-09
2.75089e-09 0.0142181 8.93331e-09
2.54019e-09 0.0142181 8.70851e-09
2.28751e-09 0.0142181 8.71982e-09
3.12895e-09 0.0142181 8.83471e-09
2.76225e-09 0.0142181 8.97832e-09
2.74547e-09 0.0142181 8.66092e-09
2.41024e-09 0.0142181 8.78324e-09
2.30746e-09 0.0142181 8.54172e-09
3.1458e-09 0.0154267 9.78525e-09
3.12215e-09 0.0154267 9.86564e-09
2.93408e-09 0.0154267 9.77976e-09
2.50722e-09 0.0154267 9.72994e-09
3.08424e-09 0.0154267 9.70358e-09
3.25318e-09 0.0154267 9.75942e-09
3.05739e-09 0.0154267 9.63966e-09
2.91539e-09 0.0154267 9.73552e-09
2.80762e-09 0.0154267 9.84427e-09
2.40667e-09 0.0154267 9.77893e-09
3.17853e-09 0.0154267 9.56705e-09
3.07956e-09 0.0154267 9.83166e-09
3.09465e-09 0.0154267 9.87726e-09
2.88321e-09 0.0154267 9.79845e-09
2.40846e-09 0.0154267 9.62838e-09
3.17212e-09 0.0154267 9.87327e-09
3.10846e-09 0.0154267 9.80561e-09
3.05795e-09 0.0154267 1.00175e-08
2.71569e-09 0.0154267 9.82657e-09
2.64162e-09 0.0154267 9.56973e-09
3.11377e-09 0.0154267 9.90517e-09
3.17001e-09 0.0154267 9.82612e-09
2.9571e-09 0.0154267 1.01033e-08
2.8483e-09 0.0154267 1.00412e-08
2.68005e-09 0.0154267 9.71034e-09
3.68516e-09 0.0166406 1.04344e-08
3.35948e-09 0.0166406 1.0638e-08
3.15238e-09 0.0166406 1.04007e-08
2.95105e-09 0.0166406 1.07715e-08
2.77475e-09 0.0166406 1.08517e-08
3.52662e-09 0.0166406 1.05855e-08
3.35283e-09 0.0166406 1.06943e-08
3.19997e-09 0.0166406 1.05987e-08
3.00013e-09 0.0166406 1.06902e-08
2.62686e-09 0.0166406 1.06779e-08
3.32321e-09 0.0166406 1.07644e-08
3.42098e-09 0.0166406 1.08103e-08
3.33212e-09 0.0166406 1.09913e-08
2.93745e-09 0.0166406 1.07115e-08
2.71728e-09 0.0166406 1.05881e-08
3.29065e-09 0.0166406 1.07666e-08
3.41037e-09 0.0166406 1.0949e-08
3.43041e-09 0.0166406 1.09986e-08
2.88622e-09 0.0166406 1.06436e-08
2.59621e-09 0.0166406 1.06445e-08
3.14613e-09 0.0166406 1.09976e-08
3.45284e-09 0.0166406 1.09299e-08
3.28151e-09 0.0166406 1.07368e-08
2.94484e-09 0.0166406 1.10948e-08
2.79687e-09 0.0166406 1.07722e-08
3.40578e-09 0.0178598 1.13596e-08
3.55191e-09 0.0178598 1.13363e-08
3.28721e-09 0.0178598 1.13579e-08
3.21765e-09 0.0178598 1.1412e-08
3.28718e-09 0.0178598 1.13729e-08
3.73071e-09 0.0178598 1.15176e-08
3.48312e-09 0.0178598 1.14374e-08
3.42223e-09 0.0178598 1.15524e-08
3.18106e-09 0.0178598 1.14942e-08
2.99823e-09 0.0178598 1.14129e-08
3.79403e-09 0.0178598 1.16959e-08
3.50901e-09 0.0178598 1.15652e-08
3.38902e-09 0.0178598 1.17423e-08
3.09843e-09 0.0178598 1.14373e-08
3.04856e-09 0.0178598 1.1294e-08
3.72748e-09 0.0178598 1.16979e-08
3.4453e-09 0.0178598 1.17578e-08
3.43711e-09 0.0178598 1.16615e-08
3.23318e-09 0.0178598 1.14887e-08
3.12164e-09 0.0178598 1.1488e-08
3.95116e-09 0.0178598 1.1655e-08
3.35186e-09 0.0178598 1.17832e-08
3.45263e-09 0.0178598 1.18628e-08
3.04591e-09 0.0178598 1.13795e-08
3.13704e-09 0.0178598 1.17704e-08
3.19607e-09 0.0190847 1.22598e-08
3.63503e-09 0.0190847 1.23405e-08
3.65185e-09 0.0190847 1.26268e-08
3.47307e-09 0.0190847 1.22455e-08
3.34249e-09 0.0190847 1.22441e-08
3.467e-09 0.0190847 1.20518e-08
3.65387e-09 0.0190847 1.23616e-08
3.57042e-09 0.0190847 1.21917e-08
3.26722e-09 0.0190847 1.20687e-08
3.30973e-09 0.0190847 1.21925e-08
3.97197e-09 0.0190847 1.22257e-08
3.66096e-09 0.0190847 1.23705e-08
3.5506e-09 0.0190847 1.24133e-08
3.2064e-09 0.0190847 1.22872e-08
3.22795e-09 0.0190847 1.21637e-08
4.00469e-09 0.0190847 1.22337e-08
3.55627e-09 0.0190847 1.23749e-08
3.4241e-09 0.0190847 1.24119e-08
3.23908e-09 0.0190847 1.23597e-08
3.41595e-09 0.0190847 1.21809e-08
3.62966e-09 0.0190847 1.24796e-08
3.70751e-09 0.0190847 1.21556e-08
3.2867e-09 0.0190847 1.22104e-08
3.56521e-09 0.0190847 1.27159e-08
3.24843e-09 0.0190847 1.20295e-08
3.80792e-09 0.0203152 1.3096e-08
3.89597e-09 0.0203152 1.30541e-08
3.58167e-09 0.0203152 1.34455e-08
3.16295e-09 0.0203152 1.28643e-08
3.16551e-09 0.0203152 1.30064e-08
3.94949e-09 0.0203152 1.30755e-08
3.63083e-09 0.0203152 1.30114e-08
3.81159e-09 0.0203152 1.29155e-08
3.30974e-09 0.0203152 1.29645e-08
3.32209e-09 0.0203152 1.27832e-08
4.04057e-09 0.0203152 1.28274e-08
3.75969e-09 0.0203152 1.27235e-08
3.50939e-09 0.0203152 1.29332e-08
3.50762e-09 0.0203152 1.28515e-08
3.25817e-09 0.0203152 1.28922e-08
4.23659e-09 0.0203152 1.27985e-08
3.8469e-09 0.0203152 1.27237e-08
3.6045e-09 0.0203152 1.29533e-08
3.51257e-09 0.0203152 1.28042e-08
3.13019e-09 0.0203152 1.30161e-08
4.45253e-09 0.0203152 1.28089e-08
3.40632e-09 0.0203152 1.29229e-08
3.62489e-09 0.0203152 1.30777e-08
3.45919e-09 0.0203152 1.27757e-08
3.55484e-09 0.0203152 1.29524e-08
4.29291e-09 0.0215515 1.31945e-08
3.60205e-09 0.0215515 1.3496e-08
3.8657e-09 0.0215515 1.31813e-08
3.66597e-09 0.0215515 1.3067e-08
3.4304e-09 0.0215515 1.33194e-08
4.05815e-09 0.0215515 1.32981e-08
3.75994e-09 0.0215515 1.30831e-08
3.73577e-09 0.0215515 1.34135e-08
3.44205e-09 0.0215515 1.3216e-08
3.47855e-09 0.0215515 1.31861e-08
4.12653e-09 0.0215515 1.32648e-08
3.76151e-09 0.0215515 1.32077e-08
3.70327e-09 0.0215515 1.32899e-08
3.62859e-09 0.0215515 1.33558e-08
3.66895e-09 0.0215515 1.334e-08
3.75011e-09 0.0215515 1.33506e-08
3.75053e-09 0.0215515 1.32988e-08
3.72268e-09 0.0215515 1.32939e-08
3.65435e-09 0.0215515 1.33416e-08
4.06153e-09 0.0215515 1.33497e-08
4.14739e-09 0.0215515 1.33306e-08
3.94453e-09 0.0215515 1.35078e-08
3.74016e-09 0.0215515 1.33616e-08
3.63611e-09 0.0215515 1.32404e-08
3.62958e-09 0.0215515 1.36354e-08
3.48492e-09 0.0227937 1.35355e-08
3.76531e-09 0.0227937 1.36541e-08
3.44414e-09 0.0227937 1.31921e-08
3.6161e-09 0.0227937 1.31513e-08
4.05246e-09 0.0227937 1.30697e-08
3.73595e-09 0.0227937 1.35384e-08
3.52926e-09 0.0227937 1.33946e-08
3.84388e-09 0.0227937 1.32608e-08
3.7928e-09 0.0227937 1.33471e-08
4.0822e-09 0.0227937 1.32125e-08
3.56966e-09 0.0227937 1.36069e-08
3.71262e-09 0.0227937 1.36149e-08
3.74273e-09 0.0227937 1.351e-08
3.74688e-09 0.0227937 1.34293e-08
4.43059e-09 0.0227937 1.33916e-08
3.63968e-09 0.0227937 1.37856e-08
3.64208e-09 0.0227937 1.36614e-08
3.82978e-09 0.0227937 1.37805e-08
3.94171e-09 0.0227937 1.36702e-08
4.19926e-09 0.0227937 1.36699e-08
3.56981e-09 0.0227937 1.41715e-08
3.75829e-09 0.0227937 1.34859e-08
3.97126e-09 0.0227937 1.3812e-08
3.96881e-09 0.0227937 1.39046e-08
4.18861e-09 0.0227937 1.3543e-08
2.94431e-09 0.0240418 1.42293e-08
3.64554e-09 0.0240418 1.41127e-08
3.92831e-09 0.0240418 1.36859e-08
3.62181e-09 0.0240418 1.35961e-08
3.8753e-09 0.0240418 1.3331e-08
3.43638e-09 0.0240418 1.4065e-08
3.53056e-09 0.0240418 1.39252e-08
3.65614e-09 0.0240418 1.35316e-08
3.71555e-09 0.0240418 1.35216e-08
4.43458e-09 0.0240418 1.34477e-08
3.36884e-09 0.0240418 1.39125e-08
3.41399e-09 0.0240418 1.40002e-08
3.67601e-09 0.0240418 1.38404e-08
3.97767e-09 0.0240418 1.36952e-08
4.52444e-09 0.0240418 1.35989e-08
3.71681e-09 0.0240418 1.41602e-08
3.55723e-09 0.0240418 1.39406e-08
3.78975e-09 0.0240418 1.41879e-08
3.91049e-09 0.0240418 1.39689e-08
4.28946e-09 0.0240418 1.39018e-08
3.74236e-09 0.0240418 1.39167e-08
3.45866e-09 0.0240418 1.42609e-08
4.0146e-09 0.0240418 1.40904e-08
3.73472e-09 0.0240418 1.38444e-08
4.09689e-09 0.0240418 1.40557e-08
3.61878e-09 0.0252958 1.49129e-08
3.16655e-09 0.0252958 1.43132e-08
3.93849e-09 0.0252958 1.39693e-08
3.47964e-09 0.0252958 1.36264e-08
4.25612e-09 0.0252958 1.40241e-08
3.38481e-09 0.0252958 1.43308e-08
3.30853e-09 0.0252958 1.41146e-08
3.59562e-09 0.0252958 1.39919e-08
3.75751e-09 0.0252958 1.38089e-08
4.32598e-09 0.0252958 1.39439e-08
3.1666e-09 0.0252958 1.43066e-08
3.31241e-09 0.0252958 1.4154e-08
3.61049e-09 0.0252958 1.41754e-08
3.90724e-09 0.0252958 1.43182e-08
4.37435e-09 0.0252958 1.40096e-08
3.11323e-09 0.0252958 1.44068e-08
3.54056e-09 0.0252958 1.4582e-08
3.58479e-09 0.0252958 1.44104e-08
3.72804e-09 0.0252958 1.41773e-08
4.5039e-09 0.0252958 1.43127e-08
3.39256e-09 0.0252958 1.46708e-08
3.40842e-09 0.0252958 1.46049e-08
3.59844e-09 0.0252958 1.45862e-08
4.0299e-09 0.0252958 1.43238e-08
3.77854e-09 0.0252958 1.43891e-08
2.88623e-09 0.0265556 1.42465e-08
3.52952e-09 0.0265556 1.42005e-08
3.44037e-09 0.0265556 1.39313e-08
3.47549e-09 0.0265556 1.39396e-08
3.69982e-09 0.0265556 1.43751e-08
2.93861e-09 0.0265556 1.45068e-08
3.28976e-09 0.0265556 1.4418e-08
3.47157e-09 0.0265556 1.41197e-08
3.68746e-09 0.0265556 1.43198e-08
4.17898e-09 0.0265556 1.43122e-08
2.7869e-09 0.0265556 1.46467e-08
3.20291e-09 0.0265556 1.45575e-08
3.53919e-09 0.0265556 1.44443e-08
3.7571e-09 0.0265556 1.43439e-08
4.67988e-09 0.0265556 1.46552e-08
3.33083e-09 0.0265556 1.44498e-08
3.31106e-09 0.0265556 1.46843e-08
3.50869e-09 0.0265556 1.47382e-08
3.76131e-09 0.0265556 1.4754e-08
4.34633e-09 0.0265556 1.47453e-08
3.76118e-09 0.0265556 1.46906e-08
3.25537e-09 0.0265556 1.47129e-08
3.38905e-09 0.0265556 1.47113e-08
3.78667e-09 0.0265556 1.51549e-08
3.7799e-09 0.0265556 1.48454e-08
2.81356e-09 0.0278212 1.45652e-08
3.03246e-09 0.0278212 1.43177e-08
3.13926e-09 0.0278212 1.44147e-08
3.24915e-09 0.0278212 1.38551e-08
3.94319e-09 0.0278212 1.41642e-08
2.45282e-09 0.0278212 1.45815e-08
2.9733e-09 0.0278212 1.43199e-08
3.38415e-09 0.0278212 1.45021e-08
3.48903e-09 0.0278212 1.4258e-08
3.6861e-09 0.0278212 1.44271e-08
2.57419e-09 0.0278212 1.47144e-08
2.99521e-09 0.0278212 1.46354e-08
3.41881e-09 0.0278212 1.47965e-08
3.42963e-09 0.0278212 1.47054e-08
4.41057e-09 0.0278212 1.45158e-08
2.90857e-09 0.0278212 1.457e-08
3.04907e-09 0.0278212 1.46094e-08
3.26543e-09 0.0278212 1.46682e-08
3.44903e-09 0.0278212 1.47045e-08
3.90434e-09 0.0278212 1.50631e-08
2.74522e-09 0.0278212 1.45653e-08
3.38345e-09 0.0278212 1.46667e-08
3.56175e-09 0.0278212 1.46858e-08
3.35461e-09 0.0278212 1.49122e-08
4.21421e-09 0.0278212 1.49399e-08
2.83081e-09 0.0290924 1.44179e-08
2.81335e-09 0.0290924 1.4314e-08
2.75343e-09 0.0290924 1.36799e-08