<?xml version="1.0"?>
<VTKFile type="UnstructuredGrid" version="0.1" byte_order="LittleEndian">
<UnstructuredGrid>
<Piece NumberOfPoints="1025" NumberOfCells="640">
<Points>
<DataArray type="Float32" NumberOfComponents="3" format="ascii">
0 0 0
0.025 0 0
0.05 0 0
0.075 0 0
0.1 0 0
0 0.025 0
0.025 0.025 0
0.05 0.025 0
0.075 0.025 0
0.1 0.025 0
0 0.05 0
0.025 0.05 0
0.05 0.05 0
0.075 0.05 0
0.1 0.05 0
0 0.075 0
0.025 0.075 0
0.05 0.075 0
0.075 0.075 0
0.1 0.075 0
0 0.1 0
0.025 0.1 0
0.05 0.1 0
0.075 0.1 0
0.1 0.1 0
0 0 0.025
0.025 0 0.025
0.05 0 0.025
0.075 0 0.025
0.1 0 0.025
0 0.025 0.025
0.025 0.025 0.025
0.05 0.025 0.025
0.075 0.025 0.025
0.1 0.025 0.025
0 0.05 0.025
0.025 0.05 0.025
0.05 0.05 0.025
0.075 0.05 0.025
0.1 0.05 0.025
0 0.075 0.025
0.025 0.075 0.025
0.05 0.075 0.025
0.075 0.075 0.025
0.1 0.075 0.025
0 0.1 0.025
0.025 0.1 0.025
0.05 0.1 0.025
0.075 0.1 0.025
0.1 0.1 0.025
0 0 0.05
0.025 0 0.05
0.05 0 0.05
0.075 0 0.05
0.1 0 0.05
0 0.025 0.05
0.025 0.025 0.05
0.05 0.025 0.05
0.075 0.025 0.05
0.1 0.025 0.05
0 0.05 0.05
0.025 0.05 0.05
0.05 0.05 0.05
0.075 0.05 0.05
0.1 0.05 0.05
0 0.075 0.05
0.025 0.075 0.05
0.05 0.075 0.05
0.075 0.075 0.05
0.1 0.075 0.05
0 0.1 0.05
0.025 0.1 0.05
0.05 0.1 0.05
0.075 0.1 0.05
0.1 0.1 0.05
0 0 0.075
0.025 0 0.075
0.05 0 0.075
0.075 0 0.075
0.1 0 0.075
0 0.025 0.075
0.025 0.025 0.075
0.05 0.025 0.075
0.075 0.025 0.075
0.1 0.025 0.075
0 0.05 0.075
0.025 0.05 0.075
0.05 0.05 0.075
0.075 0.05 0.075
0.1 0.05 0.075
0 0.075 0.075
0.025 0.075 0.075
0.05 0.075 0.075
0.075 0.075 0.075
0.1 0.075 0.075
0 0.1 0.075
0.025 0.1 0.075
0.05 0.1 0.075
0.075 0.1 0.075
0.1 0.1 0.075
0 0 0.1
0.025 0 0.1
0.05 0 0.1
0.075 0 0.1
0.1 0 0.1
0 0.025 0.1
0.025 0.025 0.1
0.05 0.025 0.1
0.075 0.025 0.1
0.1 0.025 0.1
0 0.05 0.1
0.025 0.05 0.1
0.05 0.05 0.1
0.075 0.05 0.1
0.1 0.05 0.1
0 0.075 0.1
0.025 0.075 0.1
0.05 0.075 0.1
0.075 0.075 0.1
0.1 0.075 0.1
0 0.1 0.1
0.025 0.1 0.1
0.05 0.1 0.1
0.075 0.1 0.1
0.1 0.1 0.1
0 0 0.125
0.025 0 0.125
0.05 0 0.125
0.075 0 0.125
0.1 0 0.125
0 0.025 0.125
0.025 0.025 0.125
0.05 0.025 0.125
0.075 0.025 0.125
0.1 0.025 0.125
0 0.05 0.125
0.025 0.05 0.125
0.05 0.05 0.125
0.075 0.05 0.125
0.1 0.05 0.125
0 0.075 0.125
0.025 0.075 0.125
0.05 0.075 0.125
0.075 0.075 0.125
0.1 0.075 0.125
0 0.1 0.125
0.025 0.1 0.125
0.05 0.1 0.125
0.075 0.1 0.125
0.1 0.1 0.125
0 0 0.15
0.025 0 0.15
0.05 0 0.15
0.075 0 0.15
0.1 0 0.15
0 0.025 0.15
0.025 0.025 0.15
0.05 0.025 0.15
0.075 0.025 0.15
0.1 0.025 0.15
0 0.05 0.15
0.025 0.05 0.15
0.05 0.05 0.15
0.075 0.05 0.15
0.1 0.05 0.15
0 0.075 0.15
0.025 0.075 0.15
0.05 0.075 0.15
0.075 0.075 0.15
0.1 0.075 0.15
0 0.1 0.15
0.025 0.1 0.15
0.05 0.1 0.15
0.075 0.1 0.15
0.1 0.1 0.15
0 0 0.175
0.025 0 0.175
0.05 0 0.175
0.075 0 0.175
0.1 0 0.175
0 0.025 0.175
0.025 0.025 0.175
0.05 0.025 0.175
0.075 0.025 0.175
0.1 0.025 0.175
0 0.05 0.175
0.025 0.05 0.175
0.05 0.05 0.175
0.075 0.05 0.175
0.1 0.05 0.175
0 0.075 0.175
0.025 0.075 0.175
0.05 0.075 0.175
0.075 0.075 0.175
0.1 0.075 0.175
0 0.1 0.175
0.025 0.1 0.175
0.05 0.1 0.175
0.075 0.1 0.175
0.1 0.1 0.175
0 0 0.2
0.025 0 0.2
0.05 0 0.2
0.075 0 0.2
0.1 0 0.2
0 0.025 0.2
0.025 0.025 0.2
0.05 0.025 0.2
0.075 0.025 0.2
0.1 0.025 0.2
0 0.05 0.2
0.025 0.05 0.2
0.05 0.05 0.2
0.075 0.05 0.2
0.1 0.05 0.2
0 0.075 0.2
0.025 0.075 0.2
0.05 0.075 0.2
0.075 0.075 0.2
0.1 0.075 0.2
0 0.1 0.2
0.025 0.1 0.2
0.05 0.1 0.2
0.075 0.1 0.2
0.1 0.1 0.2
0 0 0.225
0.025 0 0.225
0.05 0 0.225
0.075 0 0.225
0.1 0 0.225
0 0.025 0.225
0.025 0.025 0.225
0.05 0.025 0.225
0.075 0.025 0.225
0.1 0.025 0.225
0 0.05 0.225
0.025 0.05 0.225
0.05 0.05 0.225
0.075 0.05 0.225
0.1 0.05 0.225
0 0.075 0.225
0.025 0.075 0.225
0.05 0.075 0.225
0.075 0.075 0.225
0.1 0.075 0.225
0 0.1 0.225
0.025 0.1 0.225
0.05 0.1 0.225
0.075 0.1 0.225
0.1 0.1 0.225
0 0 0.25
0.025 0 0.25
0.05 0 0.25
0.075 0 0.25
0.1 0 0.25
0 0.025 0.25
0.025 0.025 0.25
0.05 0.025 0.25
0.075 0.025 0.25
0.1 0.025 0.25
0 0.05 0.25
0.025 0.05 0.25
0.05 0.05 0.25
0.075 0.05 0.25
0.1 0.05 0.25
0 0.075 0.25
0.025 0.075 0.25
0.05 0.075 0.25
0.075 0.075 0.25
0.1 0.075 0.25
0 0.1 0.25
0.025 0.1 0.25
0.05 0.1 0.25
0.075 0.1 0.25
0.1 0.1 0.25
0 0 0.275
0.025 0 0.275
0.05 0 0.275
0.075 0 0.275
0.1 0 0.275
0 0.025 0.275
0.025 0.025 0.275
0.05 0.025 0.275
0.075 0.025 0.275
0.1 0.025 0.275
0 0.05 0.275
0.025 0.05 0.275
0.05 0.05 0.275
0.075 0.05 0.275
0.1 0.05 0.275
0 0.075 0.275
0.025 0.075 0.275
0.05 0.075 0.275
0.075 0.075 0.275
0.1 0.075 0.275
0 0.1 0.275
0.025 0.1 0.275
0.05 0.1 0.275
0.075 0.1 0.275
0.1 0.1 0.275
0 0 0.3
0.025 0 0.3
0.05 0 0.3
0.075 0 0.3
0.1 0 0.3
0 0.025 0.3
0.025 0.025 0.3
0.05 0.025 0.3
0.075 0.025 0.3
0.1 0.025 0.3
0 0.05 0.3
0.025 0.05 0.3
0.05 0.05 0.3
0.075 0.05 0.3
0.1 0.05 0.3
0 0.075 0.3
0.025 0.075 0.3
0.05 0.075 0.3
0.075 0.075 0.3
0.1 0.075 0.3
0 0.1 0.3
0.025 0.1 0.3
0.05 0.1 0.3
0.075 0.1 0.3
0.1 0.1 0.3
0 0 0.325
0.025 0 0.325
0.05 0 0.325
0.075 0 0.325
0.1 0 0.325
0 0.025 0.325
0.025 0.025 0.325
0.05 0.025 0.325
0.075 0.025 0.325
0.1 0.025 0.325
0 0.05 0.325
0.025 0.05 0.325
0.05 0.05 0.325
0.075 0.05 0.325
0.1 0.05 0.325
0 0.075 0.325
0.025 0.075 0.325
0.05 0.075 0.325
0.075 0.075 0.325
0.1 0.075 0.325
0 0.1 0.325
0.025 0.1 0.325
0.05 0.1 0.325
0.075 0.1 0.325
0.1 0.1 0.325
0 0 0.35
0.025 0 0.35
0.05 0 0.35
0.075 0 0.35
0.1 0 0.35
0 0.025 0.35
0.025 0.025 0.35
0.05 0.025 0.35
0.075 0.025 0.35
0.1 0.025 0.35
0 0.05 0.35
0.025 0.05 0.35
0.05 0.05 0.35
0.075 0.05 0.35
0.1 0.05 0.35
0 0.075 0.35
0.025 0.075 0.35
0.05 0.075 0.35
0.075 0.075 0.35
0.1 0.075 0.35
0 0.1 0.35
0.025 0.1 0.35
0.05 0.1 0.35
0.075 0.1 0.35
0.1 0.1 0.35
0 0 0.375
0.025 0 0.375
0.05 0 0.375
0.075 0 0.375
0.1 0 0.375
0 0.025 0.375
0.025 0.025 0.375
0.05 0.025 0.375
0.075 0.025 0.375
0.1 0.025 0.375
0 0.05 0.375
0.025 0.05 0.375
0.05 0.05 0.375
0.075 0.05 0.375
0.1 0.05 0.375
0 0.075 0.375
0.025 0.075 0.375
0.05 0.075 0.375
0.075 0.075 0.375
0.1 0.075 0.375
0 0.1 0.375
0.025 0.1 0.375
0.05 0.1 0.375
0.075 0.1 0.375
0.1 0.1 0.375
0 0 0.4
0.025 0 0.4
0.05 0 0.4
0.075 0 0.4
0.1 0 0.4
0 0.025 0.4
0.025 0.025 0.4
0.05 0.025 0.4
0.075 0.025 0.4
0.1 0.025 0.4
0 0.05 0.4
0.025 0.05 0.4
0.05 0.05 0.4
0.075 0.05 0.4
0.1 0.05 0.4
0 0.075 0.4
0.025 0.075 0.4
0.05 0.075 0.4
0.075 0.075 0.4
0.1 0.075 0.4
0 0.1 0.4
0.025 0.1 0.4
0.05 0.1 0.4
0.075 0.1 0.4
0.1 0.1 0.4
0 0 0.425
0.025 0 0.425
0.05 0 0.425
0.075 0 0.425
0.1 0 0.425
0 0.025 0.425
0.025 0.025 0.425
0.05 0.025 0.425
0.075 0.025 0.425
0.1 0.025 0.425
0 0.05 0.425
0.025 0.05 0.425
0.05 0.05 0.425
0.075 0.05 0.425
0.1 0.05 0.425
0 0.075 0.425
0.025 0.075 0.425
0.05 0.075 0.425
0.075 0.075 0.425
0.1 0.075 0.425
0 0.1 0.425
0.025 0.1 0.425
0.05 0.1 0.425
0.075 0.1 0.425
0.1 0.1 0.425
0 0 0.45
0.025 0 0.45
0.05 0 0.45
0.075 0 0.45
0.1 0 0.45
0 0.025 0.45
0.025 0.025 0.45
0.05 0.025 0.45
0.075 0.025 0.45
0.1 0.025 0.45
0 0.05 0.45
0.025 0.05 0.45
0.05 0.05 0.45
0.075 0.05 0.45
0.1 0.05 0.45
0 0.075 0.45
0.025 0.075 0.45
0.05 0.075 0.45
0.075 0.075 0.45
0.1 0.075 0.45
0 0.1 0.45
0.025 0.1 0.45
0.05 0.1 0.45
0.075 0.1 0.45
0.1 0.1 0.45
0 0 0.475
0.025 0 0.475
0.05 0 0.475
0.075 0 0.475
0.1 0 0.475
0 0.025 0.475
0.025 0.025 0.475
0.05 0.025 0.475
0.075 0.025 0.475
0.1 0.025 0.475
0 0.05 0.475
0.025 0.05 0.475
0.05 0.05 0.475
0.075 0.05 0.475
0.1 0.05 0.475
0 0.075 0.475
0.025 0.075 0.475
0.05 0.075 0.475
0.075 0.075 0.475
0.1 0.075 0.475
0 0.1 0.475
0.025 0.1 0.475
0.05 0.1 0.475
0.075 0.1 0.475
0.1 0.1 0.475
0 0 0.5
0.025 0 0.5
0.05 0 0.5
0.075 0 0.5
0.1 0 0.5
0 0.025 0.5
0.025 0.025 0.5
0.05 0.025 0.5
0.075 0.025 0.5
0.1 0.025 0.5
0 0.05 0.5
0.025 0.05 0.5
0.05 0.05 0.5
0.075 0.05 0.5
0.1 0.05 0.5
0 0.075 0.5
0.025 0.075 0.5
0.05 0.075 0.5
0.075 0.075 0.5
0.1 0.075 0.5
0 0.1 0.5
0.025 0.1 0.5
0.05 0.1 0.5
0.075 0.1 0.5
0.1 0.1 0.5
0 0 0.525
0.025 0 0.525
0.05 0 0.525
0.075 0 0.525
0.1 0 0.525
0 0.025 0.525
0.025 0.025 0.525
0.05 0.025 0.525
0.075 0.025 0.525
0.1 0.025 0.525
0 0.05 0.525
0.025 0.05 0.525
0.05 0.05 0.525
0.075 0.05 0.525
0.1 0.05 0.525
0 0.075 0.525
0.025 0.075 0.525
0.05 0.075 0.525
0.075 0.075 0.525
0.1 0.075 0.525
0 0.1 0.525
0.025 0.1 0.525
0.05 0.1 0.525
0.075 0.1 0.525
0.1 0.1 0.525
0 0 0.55
0.025 0 0.55
0.05 0 0.55
0.075 0 0.55
0.1 0 0.55
0 0.025 0.55
0.025 0.025 0.55
0.05 0.025 0.55
0.075 0.025 0.55
0.1 0.025 0.55
0 0.05 0.55
0.025 0.05 0.55
0.05 0.05 0.55
0.075 0.05 0.55
0.1 0.05 0.55
0 0.075 0.55
0.025 0.075 0.55
0.05 0.075 0.55
0.075 0.075 0.55
0.1 0.075 0.55
0 0.1 0.55
0.025 0.1 0.55
0.05 0.1 0.55
0.075 0.1 0.55
0.1 0.1 0.55
0 0 0.575
0.025 0 0.575
0.05 0 0.575
0.075 0 0.575
0.1 0 0.575
0 0.025 0.575
0.025 0.025 0.575
0.05 0.025 0.575
0.075 0.025 0.575
0.1 0.025 0.575
0 0.05 0.575
0.025 0.05 0.575
0.05 0.05 0.575
0.075 0.05 0.575
0.1 0.05 0.575
0 0.075 0.575
0.025 0.075 0.575
0.05 0.075 0.575
0.075 0.075 0.575
0.1 0.075 0.575
0 0.1 0.575
0.025 0.1 0.575
0.05 0.1 0.575
0.075 0.1 0.575
0.1 0.1 0.575
0 0 0.6
0.025 0 0.6
0.05 0 0.6
0.075 0 0.6
0.1 0 0.6
0 0.025 0.6
0.025 0.025 0.6
0.05 0.025 0.6
0.075 0.025 0.6
0.1 0.025 0.6
0 0.05 0.6
0.025 0.05 0.6
0.05 0.05 0.6
0.075 0.05 0.6
0.1 0.05 0.6
0 0.075 0.6
0.025 0.075 0.6
0.05 0.075 0.6
0.075 0.075 0.6
0.1 0.075 0.6
0 0.1 0.6
0.025 0.1 0.6
0.05 0.1 0.6
0.075 0.1 0.6
0.1 0.1 0.6
0 0 0.625
0.025 0 0.625
0.05 0 0.625
0.075 0 0.625
0.1 0 0.625
0 0.025 0.625
0.025 0.025 0.625
0.05 0.025 0.625
0.075 0.025 0.625
0.1 0.025 0.625
0 0.05 0.625
0.025 0.05 0.625
0.05 0.05 0.625
0.075 0.05 0.625
0.1 0.05 0.625
0 0.075 0.625
0.025 0.075 0.625
0.05 0.075 0.625
0.075 0.075 0.625
0.1 0.075 0.625
0 0.1 0.625
0.025 0.1 0.625
0.05 0.1 0.625
0.075 0.1 0.625
0.1 0.1 0.625
0 0 0.65
0.025 0 0.65
0.05 0 0.65
0.075 0 0.65
0.1 0 0.65
0 0.025 0.65
0.025 0.025 0.65
0.05 0.025 0.65
0.075 0.025 0.65
0.1 0.025 0.65
0 0.05 0.65
0.025 0.05 0.65
0.05 0.05 0.65
0.075 0.05 0.65
0.1 0.05 0.65
0 0.075 0.65
0.025 0.075 0.65
0.05 0.075 0.65
0.075 0.075 0.65
0.1 0.075 0.65
0 0.1 0.65
0.025 0.1 0.65
0.05 0.1 0.65
0.075 0.1 0.65
0.1 0.1 0.65
0 0 0.675
0.025 0 0.675
0.05 0 0.675
0.075 0 0.675
0.1 0 0.675
[...]
<PointData Vectors="Displacement">
<DataArray type="Float32" Name="Displacement" NumberOfComponents="3" format="ascii">
0 0 0
0 0 0
0 0 0
0 0 0
0 0 0
0 0 0
0 0 0
0 0 0
0 0 0
0 0 0
0 0 0
0 0 0
0 0 0
0 0 0
0 0 0
0 0 0
0 0 0
0 0 0
0 0 0
0 0 0
0 0 0
0 0 0
0 0 0
0 0 0
0 0 0
-4.25348e-10 0.00112299 1.03258e-10
-4.57725e-10 0.00112299 1.18374e-10
-4.62371e-10 0.00112299 1.03255e-10
-4.54558e-10 0.00112299 1.07216e-10
-4.65536e-10 0.00112299 1.02316e-10
-4.53721e-10 0.00112299 1.00321e-10
-4.58771e-10 0.00112299 1.05399e-10
-4.59085e-10 0.00112299 9.94875e-11
-4.5975e-10 0.00112299 1.16143e-10
-4.43079e-10 0.00112299 1.09517e-10
-4.52808e-10 0.00112299 9.71138e-11
-4.6415e-10 0.00112299 1.00509e-10
-4.62434e-10 0.00112299 1.03922e-10
-4.54642e-10 0.00112299 1.03244e-10
-4.42799e-10 0.00112299 1.17827e-10
-4.26635e-10 0.00112299 1.17594e-10
-4.63956e-10 0.00112299 1.08769e-10
-4.55228e-10 0.00112299 1.12849e-10
-4.56317e-10 0.00112299 1.13706e-10
-4.69232e-10 0.00112299 1.20407e-10
-4.17317e-10 0.00112299 1.26051e-10
-4.51476e-10 0.00112299 1.21243e-10
-4.55969e-10 0.00112299 1.19097e-10
-4.61772e-10 0.00112299 1.22757e-10
-4.95063e-10 0.00112299 1.37628e-10
-9.1326e-10 0.00224659 2.38948e-10
-8.99621e-10 0.00224659 2.18008e-10
-8.99177e-10 0.00224659 2.59807e-10
-9.06143e-10 0.00224659 2.56531e-10
-9.00549e-10 0.00224659 2.3587e-10
-9.01312e-10 0.00224659 2.25633e-10
-8.96275e-10 0.00224659 2.3892e-10
-9.03321e-10 0.00224659 2.58672e-10
-8.91866e-10 0.00224659 2.50447e-10
-8.72901e-10 0.00224659 2.43295e-10
-9.15062e-10 0.00224659 2.26819e-10
-9.03231e-10 0.00224659 2.36934e-10
-9.01644e-10 0.00224659 2.207e-10
-9.00154e-10 0.00224659 2.51952e-10
-8.51172e-10 0.00224659 2.47808e-10
-8.9894e-10 0.00224659 2.43841e-10
-9.07322e-10 0.00224659 2.24503e-10
-8.90807e-10 0.00224659 2.36825e-10
-9.13083e-10 0.00224659 2.35447e-10
-8.91821e-10 0.00224659 2.33615e-10
-8.66935e-10 0.00224659 2.55464e-10
-8.95302e-10 0.00224659 2.6935e-10
-9.1927e-10 0.00224659 2.22547e-10
-9.04508e-10 0.00224659 2.36477e-10
-9.49771e-10 0.00224659 2.39225e-10
-1.31501e-09 0.00337138 4.65258e-10
-1.32558e-09 0.00337138 3.96485e-10
-1.27937e-09 0.00337138 4.34807e-10
-1.37361e-09 0.00337138 4.34382e-10
-1.26247e-09 0.00337138 4.30139e-10
-1.35062e-09 0.00337138 4.07396e-10
-1.32195e-09 0.00337138 3.98303e-10
-1.29184e-09 0.00337138 3.96067e-10
-1.32316e-09 0.00337138 4.16546e-10
-1.29299e-09 0.00337138 3.88757e-10
-1.32128e-09 0.00337138 4.06226e-10
-1.32787e-09 0.00337138 4.05167e-10
-1.31165e-09 0.00337138 4.31824e-10
-1.28493e-09 0.00337138 4.07724e-10
-1.24514e-09 0.00337138 4.32767e-10
-1.294e-09 0.00337138 3.85499e-10
-1.31953e-09 0.00337138 4.0904e-10
-1.3263e-09 0.00337138 3.85531e-10
-1.30128e-09 0.00337138 4.37584e-10
-1.30016e-09 0.00337138 4.27287e-10
-1.32637e-09 0.00337138 3.60284e-10
-1.31273e-09 0.00337138 3.65525e-10
-1.29385e-09 0.00337138 3.36422e-10
-1.32968e-09 0.00337138 3.72801e-10
-1.31872e-09 0.00337138 3.52212e-10
-1.76562e-09 0.00449796 5.92349e-10
-1.70693e-09 0.00449796 5.5788e-10
-1.64e-09 0.00449796 5.61916e-10
-1.70981e-09 0.00449796 5.36988e-10
-1.64138e-09 0.00449796 5.56699e-10
-1.72283e-09 0.00449796 5.61598e-10
-1.70562e-09 0.00449796 6.18262e-10
-1.65881e-09 0.00449796 5.71377e-10
-1.70009e-09 0.00449796 5.57435e-10
-1.62301e-09 0.00449796 5.96303e-10
-1.73762e-09 0.00449796 5.55205e-10
-1.68177e-09 0.00449796 5.81573e-10
-1.67267e-09 0.00449796 5.79293e-10
-1.65768e-09 0.00449796 6.09197e-10
-1.64308e-09 0.00449796 6.01969e-10
-1.65114e-09 0.00449796 5.5547e-10
-1.69193e-09 0.00449796 5.53904e-10
-1.65281e-09 0.00449796 5.61057e-10
-1.6676e-09 0.00449796 5.77206e-10
-1.65497e-09 0.00449796 6.10913e-10
-1.67949e-09 0.00449796 5.26687e-10
-1.68816e-09 0.00449796 5.65937e-10
-1.6435e-09 0.00449796 5.24056e-10
-1.63856e-09 0.00449796 6.37315e-10
-1.67817e-09 0.00449796 5.38568e-10
-2.04818e-09 0.00562694 6.8423e-10
-2.04595e-09 0.00562694 6.96385e-10
-1.98663e-09 0.00562694 6.76528e-10
-2.00551e-09 0.00562694 7.23693e-10
-1.90232e-09 0.00562694 7.90342e-10
-2.12076e-09 0.00562694 7.39119e-10
-1.9929e-09 0.00562694 7.70714e-10
-1.97657e-09 0.00562694 7.18156e-10
-1.99007e-09 0.00562694 7.73869e-10
-2.01276e-09 0.00562694 8.23832e-10
-1.96991e-09 0.00562694 7.25437e-10
-2.01421e-09 0.00562694 7.6615e-10
-1.91965e-09 0.00562694 7.81578e-10
-2.01194e-09 0.00562694 8.18815e-10
-1.9969e-09 0.00562694 8.09274e-10
-1.97333e-09 0.00562694 7.74004e-10
-1.96094e-09 0.00562694 7.52197e-10
-1.9574e-09 0.00562694 8.26464e-10
-1.98679e-09 0.00562694 8.21396e-10
-1.97576e-09 0.00562694 8.02105e-10
-1.93621e-09 0.00562694 7.73607e-10
-1.94898e-09 0.00562694 8.0009e-10
-1.93829e-09 0.00562694 8.24778e-10
-2.00493e-09 0.00562694 8.02335e-10
-2.05167e-09 0.00562694 8.40763e-10
-2.3105e-09 0.00675894 1.02098e-09
-2.3055e-09 0.00675894 9.37293e-10
-2.23039e-09 0.00675894 8.72902e-10
-2.23038e-09 0.00675894 9.49559e-10
-2.17439e-09 0.00675894 1.06696e-09
-2.3301e-09 0.00675894 9.5937e-10
-2.30552e-09 0.00675894 8.75764e-10
-2.20386e-09 0.00675894 8.97889e-10
-2.21577e-09 0.00675894 9.65782e-10
-2.19752e-09 0.00675894 9.33884e-10
-2.3094e-09 0.00675894 1.00084e-09
-2.21729e-09 0.00675894 9.67466e-10
-2.2125e-09 0.00675894 9.33264e-10
-2.23134e-09 0.00675894 9.93348e-10
-2.38081e-09 0.00675894 9.92557e-10
-2.20224e-09 0.00675894 1.00339e-09
-2.21728e-09 0.00675894 1.01527e-09
-2.15455e-09 0.00675894 1.01406e-09
-2.25582e-09 0.00675894 9.66644e-10
-2.30865e-09 0.00675894 9.90181e-10
-2.25988e-09 0.00675894 1.02886e-09
-2.17487e-09 0.00675894 9.40183e-10
-2.19513e-09 0.00675894 1.02876e-09
-2.22677e-09 0.00675894 9.93703e-10
-2.2158e-09 0.00675894 9.349e-10
-2.57535e-09 0.00789463 1.2826e-09
-2.52287e-09 0.00789464 1.18535e-09
-2.36727e-09 0.00789463 1.27868e-09
-2.30558e-09 0.00789463 1.14676e-09
-2.39018e-09 0.00789463 1.10573e-09
-2.59048e-09 0.00789464 1.26409e-09
-2.49231e-09 0.00789463 1.26166e-09
-2.35662e-09 0.00789463 1.21085e-09
-2.34902e-09 0.00789463 1.20567e-09
-2.48151e-09 0.00789463 1.14579e-09
-2.47267e-09 0.00789463 1.32619e-09
-2.44186e-09 0.00789463 1.22553e-09
-2.37827e-09 0.00789463 1.23025e-09
-2.36212e-09 0.00789463 1.14823e-09
-2.46699e-09 0.00789463 1.1728e-09
-2.40946e-09 0.00789463 1.23112e-09
-2.39811e-09 0.00789463 1.21097e-09
-2.41452e-09 0.00789463 1.12817e-09
-2.39091e-09 0.00789463 1.19147e-09
-2.44392e-09 0.00789463 1.16607e-09
-2.38435e-09 0.00789463 1.24435e-09
-2.3779e-09 0.00789463 1.28589e-09
-2.3495e-09 0.00789463 1.16782e-09
-2.40325e-09 0.00789463 1.20226e-09
-2.49376e-09 0.00789463 1.19404e-09
-2.55939e-09 0.0090347 1.54441e-09
-2.62709e-09 0.0090347 1.6163e-09
-2.41678e-09 0.0090347 1.54607e-09
-2.61935e-09 0.0090347 1.57343e-09
-2.3404e-09 0.0090347 1.46413e-09
-2.64627e-09 0.0090347 1.69816e-09
-2.51287e-09 0.0090347 1.59337e-09
-2.51904e-09 0.0090347 1.5656e-09
-2.5703e-09 0.0090347 1.46867e-09
-2.44824e-09 0.0090347 1.48299e-09
-2.67981e-09 0.0090347 1.60669e-09
-2.57709e-09 0.0090347 1.58983e-09
-2.44336e-09 0.0090347 1.50116e-09
-2.61473e-09 0.0090347 1.43535e-09
-2.39672e-09 0.0090347 1.42634e-09
-2.53684e-09 0.0090347 1.59528e-09
-2.5616e-09 0.0090347 1.5103e-09
-2.49949e-09 0.0090347 1.46687e-09
-2.57411e-09 0.0090347 1.45432e-09
-2.51423e-09 0.0090347 1.47105e-09
-2.45516e-09 0.0090347 1.57354e-09
-2.60772e-09 0.0090347 1.50268e-09
-2.52484e-09 0.0090347 1.38224e-09
-2.50879e-09 0.0090347 1.57254e-09
-2.64541e-09 0.0090347 1.54621e-09
-2.52957e-09 0.0101798 1.96302e-09
-2.54178e-09 0.0101798 1.83566e-09
-2.72746e-09 0.0101798 1.77488e-09
-2.64553e-09 0.0101798 1.74993e-09
-2.66772e-09 0.0101798 1.71607e-09
-2.50792e-09 0.0101798 1.88003e-09
-2.66241e-09 0.0101798 1.96176e-09
-2.59563e-09 0.0101798 1.81551e-09
-2.63786e-09 0.0101798 1.74493e-09
-2.72579e-09 0.0101798 1.70493e-09
-2.6402e-09 0.0101798 1.9468e-09
-2.68047e-09 0.0101798 1.86553e-09
-2.55709e-09 0.0101798 1.79473e-09
-2.59946e-09 0.0101798 1.76304e-09
-2.63703e-09 0.0101798 1.86655e-09
-2.59178e-09 0.0101798 1.81619e-09
-2.60155e-09 0.0101798 1.91057e-09
-2.54479e-09 0.0101798 1.86833e-09
-2.55208e-09 0.0101798 1.83929e-09
-2.73555e-09 0.0101797 1.83186e-09
-2.56896e-09 0.0101798 1.76351e-09
-2.4808e-09 0.0101798 1.77914e-09
-2.57913e-09 0.0101798 2.0139e-09
-2.59775e-09 0.0101798 1.81509e-09
-2.78802e-09 0.0101798 1.84039e-09
-2.58636e-09 0.0113303 2.28493e-09
-2.58903e-09 0.0113303 2.35059e-09
-2.66395e-09 0.0113303 2.10444e-09
-2.59643e-09 0.0113303 2.01271e-09
-2.56469e-09 0.0113303 2.22857e-09
-2.71837e-09 0.0113303 2.31402e-09
-2.72879e-09 0.0113303 2.2574e-09
-2.64667e-09 0.0113303 2.03949e-09
-2.6705e-09 0.0113303 2.06071e-09
-2.35505e-09 0.0113303 2.04137e-09
-2.65455e-09 0.0113303 2.21392e-09
-2.69825e-09 0.0113303 2.31635e-09
-2.67952e-09 0.0113303 2.22459e-09
-2.64093e-09 0.0113303 2.17939e-09
-2.6641e-09 0.0113303 2.13343e-09
-2.65539e-09 0.0113303 2.25287e-09
-2.63339e-09 0.0113303 2.13061e-09
-2.58439e-09 0.0113303 2.22225e-09
-2.6761e-09 0.0113303 2.12144e-09
-2.61464e-09 0.0113303 2.19715e-09
-2.57431e-09 0.0113303 2.23463e-09
-2.58446e-09 0.0113303 2.20058e-09
-2.47254e-09 0.0113303 2.10499e-09
-2.77451e-09 0.0113303 2.30379e-09
-2.68228e-09 0.0113303 2.10412e-09
-2.60697e-09 0.0124866 2.88723e-09
-2.84318e-09 0.0124866 2.56637e-09
-2.72873e-09 0.0124866 2.3886e-09
-2.50519e-09 0.0124866 2.6552e-09
-2.42355e-09 0.0124866 2.67185e-09
-2.76687e-09 0.0124866 2.64112e-09
-2.73049e-09 0.0124866 2.63719e-09
-2.78016e-09 0.0124866 2.53756e-09
-2.54331e-09 0.0124866 2.45744e-09
-2.47574e-09 0.0124866 2.55069e-09
-2.78556e-09 0.0124866 2.65149e-09
-2.60875e-09 0.0124866 2.60374e-09
-2.71044e-09 0.0124866 2.60022e-09
-2.678e-09 0.0124866 2.4966e-09
-2.31554e-09 0.0124866 2.60626e-09
-2.52786e-09 0.0124866 2.51177e-09
-2.63742e-09 0.0124866 2.52976e-09
-2.61383e-09 0.0124866 2.524e-09
-2.60418e-09 0.0124866 2.61328e-09
-2.76355e-09 0.0124866 2.60124e-09
-2.5907e-09 0.0124866 2.48759e-09
-2.53719e-09 0.0124866 2.52042e-09
-2.6056e-09 0.0124866 2.57495e-09
-2.43486e-09 0.0124866 2.60774e-09
-2.65608e-09 0.0124866 2.68781e-09
-2.42395e-09 0.0136489 2.91621e-09
-2.85435e-09 0.0136489 2.90497e-09
-2.82397e-09 0.0136489 3.11994e-09
-2.5876e-09 0.0136489 2.7787e-09
-2.44226e-09 0.0136489 2.86422e-09
-2.64446e-09 0.0136489 2.95634e-09
-2.75713e-09 0.0136489 2.99837e-09
-2.73271e-09 0.0136489 3.06821e-09
-2.67228e-09 0.0136489 2.89343e-09
-2.34936e-09 0.0136489 2.93683e-09
-2.63279e-09 0.0136489 2.81647e-09
-2.65205e-09 0.0136489 2.8605e-09
-2.6687e-09 0.0136489 2.83838e-09
-2.71141e-09 0.0136489 3.01705e-09
-2.5132e-09 0.0136489 2.85913e-09
-2.36182e-09 0.0136489 2.83454e-09
-2.64814e-09 0.0136489 2.84756e-09
-2.47674e-09 0.0136489 2.94278e-09
-2.66211e-09 0.0136489 2.93044e-09
-2.58008e-09 0.0136489 2.91989e-09
-2.03776e-09 0.0136489 2.82341e-09
-2.59068e-09 0.0136489 3.03047e-09
-2.4658e-09 0.0136489 2.61827e-09
-2.56612e-09 0.0136489 2.7756e-09
-3.0161e-09 0.0136489 2.82381e-09
-2.84353e-09 0.0148173 3.04636e-09
-2.55534e-09 0.0148173 3.10141e-09
-2.62871e-09 0.0148173 3.34234e-09
-2.75156e-09 0.0148173 3.01074e-09
-2.35728e-09 0.0148173 3.21046e-09
-2.65464e-09 0.0148173 3.00206e-09
-2.72329e-09 0.0148173 3.16689e-09
-2.67044e-09 0.0148173 3.1263e-09
-2.56249e-09 0.0148173 3.14427e-09
-2.3969e-09 0.0148173 3.22983e-09
-2.68355e-09 0.0148173 3.07406e-09
-2.67744e-09 0.0148173 3.14995e-09
-2.53361e-09 0.0148173 3.1613e-09
-2.42094e-09 0.0148173 3.24655e-09
-2.73076e-09 0.0148173 3.12894e-09
-2.73653e-09 0.0148173 3.20783e-09
-2.54217e-09 0.0148173 3.11552e-09
-2.46216e-09 0.0148173 3.30836e-09
-2.56169e-09 0.0148173 3.16971e-09
-2.52874e-09 0.0148173 3.13983e-09
-2.57452e-09 0.0148173 3.35983e-09
-2.43302e-09 0.0148173 3.09765e-09
-2.50725e-09 0.0148173 3.23773e-09
-2.52962e-09 0.0148173 3.21325e-09
-2.42566e-09 0.0148173 3.09445e-09
-2.57207e-09 0.0159919 3.02958e-09
-2.44313e-09 0.0159919 3.35248e-09
-2.55426e-09 0.0159919 3.03638e-09
-2.59976e-09 0.0159919 3.22061e-09
-2.55353e-09 0.0159919 3.32797e-09
-2.56251e-09 0.0159919 3.22509e-09
-2.47728e-09 0.0159919 3.12709e-09
-2.49378e-09 0.0159919 3.11477e-09
-2.56777e-09 0.0159919 3.34122e-09
-2.6363e-09 0.0159919 3.29339e-09
-2.74746e-09 0.0159919 3.24257e-09
-2.49722e-09 0.0159919 3.34137e-09
-2.45223e-09 0.0159919 3.40549e-09
-2.48028e-09 0.0159919 3.0941e-09
-2.51754e-09 0.0159919 3.23252e-09
-2.49596e-09 0.0159919 3.26294e-09
-2.4878e-09 0.0159919 3.27893e-09
-2.26413e-09 0.0159919 3.30959e-09
-2.52742e-09 0.0159919 3.21697e-09
-2.52445e-09 0.0159919 3.22444e-09
-2.43049e-09 0.0159919 3.60536e-09
-2.36257e-09 0.0159919 3.27705e-09
-2.37223e-09 0.0159919 3.35545e-09
-2.45784e-09 0.0159919 3.40917e-09
-2.49127e-09 0.0159919 3.39998e-09
-2.57361e-09 0.0171732 3.32845e-09
-2.26929e-09 0.0171732 3.03743e-09
-2.4432e-09 0.0171732 3.04308e-09
-2.49052e-09 0.0171732 2.97942e-09
-2.57941e-09 0.0171732 3.23308e-09
-2.43741e-09 0.0171732 3.01197e-09
-2.42389e-09 0.0171732 3.23456e-09
-2.36661e-09 0.0171732 3.04812e-09
-2.48727e-09 0.0171732 3.12589e-09
-2.57256e-09 0.0171732 3.03945e-09
-2.55828e-09 0.0171732 3.31548e-09
-2.39065e-09 0.0171732 2.99803e-09
-2.28593e-09 0.0171732 3.12275e-09
-2.44641e-09 0.0171732 3.05879e-09
-2.44364e-09 0.0171732 2.88092e-09
-2.2986e-09 0.0171732 3.02099e-09
-2.44305e-09 0.0171732 3.32689e-09
-2.30013e-09 0.0171732 3.09799e-09
-2.34421e-09 0.0171732 3.2041e-09
-2.18279e-09 0.0171732 3.12904e-09
-1.83912e-09 0.0171732 3.11428e-09
-2.46855e-09 0.0171732 2.92898e-09
-2.3388e-09 0.0171732 3.31916e-09
-2.4177e-09 0.0171732 3.03089e-09
-2.18954e-09 0.0171732 3.25978e-09
-2.65702e-09 0.0183622 2.71179e-09
-2.17611e-09 0.0183622 2.8594e-09
-2.18734e-09 0.0183622 3.04056e-09
-2.31307e-09 0.0183622 2.75051e-09
-2.31835e-09 0.0183622 2.74812e-09
-2.66851e-09 0.0183622 2.80854e-09
-2.13285e-09 0.0183622 2.77749e-09
-2.13479e-09 0.0183622 2.86432e-09
-2.30025e-09 0.0183622 2.6623e-09
-2.33936e-09 0.0183622 2.82806e-09
-2.32642e-09 0.0183622 2.85868e-09
-2.33981e-09 0.0183622 2.88464e-09
-2.09786e-09 0.0183622 2.77651e-09
-2.22671e-09 0.0183622 2.7813e-09
-2.19672e-09 0.0183622 2.83265e-09
-2.2987e-09 0.0183622 2.85913e-09
-2.39822e-09 0.0183622 2.87288e-09
-2.19855e-09 0.0183622 3.06693e-09
-2.21014e-09 0.0183622 3.06012e-09
-1.78006e-09 0.0183622 2.90518e-09
-2.46341e-09 0.0183622 3.01869e-09
-2.23364e-09 0.0183622 2.58559e-09
-2.42982e-09 0.0183622 2.62041e-09
-1.92313e-09 0.0183622 3.33982e-09
-1.93923e-09 0.0183622 2.99843e-09
-2.16853e-09 0.01956 2.78669e-09
-2.00959e-09 0.01956 2.74799e-09
-1.81883e-09 0.01956 2.79332e-09
-2.26056e-09 0.01956 2.5671e-09
-2.3926e-09 0.01956 2.36224e-09
-2.12395e-09 0.01956 2.73282e-09
-2.13315e-09 0.01956 2.67726e-09
-1.95547e-09 0.01956 2.60891e-09
-2.07473e-09 0.01956 2.48122e-09
-1.92196e-09 0.01956 2.50051e-09
-2.08658e-09 0.01956 2.42258e-09
-2.14154e-09 0.01956 2.4308e-09
-2.03566e-09 0.01956 2.43311e-09
-1.87357e-09 0.01956 2.69003e-09
-1.91778e-09 0.01956 2.62096e-09
-2.23208e-09 0.01956 2.54171e-09
-2.22288e-09 0.01956 2.4563e-09
-1.95939e-09 0.01956 2.63188e-09
-1.77559e-09 0.01956 2.5934e-09
-1.7521e-09 0.01956 2.89445e-09
-2.07526e-09 0.01956 2.38413e-09
-2.30782e-09 0.01956 2.61537e-09
-1.69554e-09 0.01956 2.64058e-09
-1.81067e-09 0.01956 3.00189e-09
-1.90354e-09 0.01956 2.64068e-09
-2.43837e-09 0.0207676 2.55762e-09
-1.73248e-09 0.0207676 2.2365e-09
-1.73436e-09 0.0207676 2.38061e-09
-1.87782e-09 0.0207676 1.83628e-09
-1.41263e-09 0.0207676 2.20144e-09
-2.04687e-09 0.0207676 2.17935e-09
-2.06929e-09 0.0207676 2.22136e-09
-1.68308e-09 0.0207676 2.21203e-09
-1.74801e-09 0.0207676 2.22446e-09
-1.42281e-09 0.0207676 1.96314e-09
-2.33921e-09 0.0207676 2.3351e-09
-2.09769e-09 0.0207676 2.05407e-09
-1.73821e-09 0.0207676 2.19667e-09
-1.4943e-09 0.0207676 2.18973e-09
-1.3619e-09 0.0207676 2.32604e-09
-2.07443e-09 0.0207676 1.9981e-09
-2.07399e-09 0.0207676 2.34515e-09
-1.65577e-09 0.0207676 2.10801e-09
-1.47545e-09 0.0207676 2.29525e-09
-1.30074e-09 0.0207676 2.41946e-09
-2.09792e-09 0.0207676 2.34442e-09
-1.90107e-09 0.0207676 2.12006e-09
-1.65647e-09 0.0207676 2.37475e-09
-1.50243e-09 0.0207676 2.06499e-09
-1.52878e-09 0.0207676 2.45301e-09
-2.04311e-09 0.0219859 1.49806e-09
-1.7178e-09 0.0219859 2.15226e-09
-1.59535e-09 0.0219859 1.31938e-09
-1.31393e-09 0.0219859 1.61524e-09
-2.13127e-11 0.0219859 1.52796e-09
-2.16092e-09 0.0219859 1.98853e-09
-1.78079e-09 0.0219859 1.7892e-09
-1.35454e-09 0.0219859 1.82082e-09
-1.19893e-09 0.0219859 1.72881e-09
-1.08112e-09 0.0219859 1.53547e-09
-2.05513e-09 0.0219859 1.86965e-09
-1.81594e-09 0.0219859 1.93811e-09
-1.42491e-09 0.0219859 1.75333e-09
-1.24164e-09 0.0219859 1.73547e-09
-7.27212e-10 0.0219859 1.82423e-09
-2.11081e-09 0.0219859 1.91754e-09
-1.65371e-09 0.0219859 1.79013e-09
-1.49168e-09 0.0219859 2.21417e-09
-1.15183e-09 0.0219859 1.86424e-09
-8.45902e-10 0.0219859 1.83965e-09
-1.95284e-09 0.0219859 2.00678e-09
-1.56761e-09 0.0219859 1.77006e-09
-1.40001e-09 0.0219859 1.80607e-09
-1.18238e-09 0.0219859 1.92938e-09
-8.01839e-10 0.0219859 1.67907e-09
-1.34942e-09 0.023215 2.01999e-09
-1.35819e-09 0.023215 1.97657e-09
-1.01983e-09 0.023215 1.66917e-09
-1.05558e-09 0.023215 1.64447e-09
-1.81754e-10 0.023215 1.62812e-09
-1.56011e-09 0.023215 1.67447e-09
-1.28288e-09 0.023215 1.67332e-09
-1.16564e-09 0.023215 1.53644e-09
-8.98386e-10 0.023215 1.61878e-09
-5.12705e-10 0.023215 1.53477e-09
-1.61057e-09 0.023215 1.46992e-09
-1.36051e-09 0.023215 1.59826e-09
-1.01065e-09 0.023215 1.81881e-09
-6.20423e-10 0.023215 1.41261e-09
-5.63076e-10 0.023215 1.42829e-09
-1.5447e-09 0.023215 1.68538e-09
-1.39907e-09 0.023215 1.58305e-09
-1.11578e-09 0.023215 1.75226e-09
-8.29364e-10 0.023215 1.63481e-09
-4.41874e-10 0.023215 1.37396e-09
-1.56294e-09 0.023215 1.56439e-09
-1.31618e-09 0.023215 1.62575e-09
-1.28644e-09 0.023215 1.55684e-09
-1.12805e-09 0.023215 1.13561e-09
-1.16292e-10 0.023215 1.55254e-09
-3.35199e-10 0.0244545 1.67122e-09
-7.85603e-10 0.0244546 1.62593e-09
-2.67281e-10 0.0244545 1.55376e-09
-6.96221e-10 0.0244545 1.27251e-09
-1.24822e-10 0.0244546 1.78396e-09
-1.17314e-09 0.0244546 1.55918e-09
-6.68747e-10 0.0244545 1.52996e-09
-3.29893e-10 0.0244546 1.50806e-09
-5.69747e-10 0.0244545 1.52555e-09
-2.65554e-10 0.0244545 1.72221e-09
-1.14239e-09 0.0244545 1.47944e-09
-9.08562e-10 0.0244545 1.64055e-09
-5.86014e-10 0.0244545 1.62297e-09
-3.58991e-10 0.0244545 1.78732e-09
3.82885e-11 0.0244545 1.3833e-09
-1.47323e-09 0.0244545 1.5977e-09
-9.1572e-10 0.0244545 1.71084e-09
-7.63738e-10 0.0244546 1.63627e-09
-5.40292e-10 0.0244545 1.2209e-09
3.55008e-10 0.0244545 1.59883e-09
-1.06105e-09 0.0244545 1.76841e-09
-1.36492e-09 0.0244545 1.2003e-09
-6.62587e-10 0.0244545 1.47297e-09
-2.30444e-10 0.0244545 1.7127e-09
1.98728e-10 0.0244545 1.46592e-09
1.52514e-10 0.0257045 1.24227e-09
3.40286e-10 0.0257045 1.18069e-09
-4.83049e-11 0.0257045 1.08973e-09
1.62743e-10 0.0257045 1.57912e-09
-3.02052e-10 0.0257045 1.83202e-09
-1.48321e-10 0.0257045 1.46968e-09
1.35287e-11 0.0257045 1.25645e-09
1.13623e-10 0.0257045 1.392e-09
1.52327e-10 0.0257045 1.79812e-09
-1.19089e-10 0.0257045 1.799e-09
-6.80476e-10 0.0257045 1.57283e-09
-1.87676e-10 0.0257045 1.60702e-09
8.66378e-11 0.0257045 1.65729e-09
3.00169e-11 0.0257045 1.76397e-09
9.01701e-10 0.0257045 1.81561e-09
-4.77735e-10 0.0257045 1.43757e-09
-3.04026e-10 0.0257045 1.63102e-09
-1.90368e-10 0.0257045 1.81572e-09
1.42864e-10 0.0257045 2.00063e-09
6.52912e-10 0.0257045 1.73949e-09
-2.08971e-11 0.0257045 1.41228e-09
-3.29302e-10 0.0257045 1.61158e-09
-1.00347e-10 0.0257045 1.81691e-09
9.85771e-11 0.0257045 1.96607e-09
3.42354e-10 0.0257045 1.93383e-09
3.05039e-10 0.0269651 1.45909e-09
4.10743e-10 0.0269651 1.71769e-09
8.89214e-10 0.0269651 1.46427e-09
8.40143e-10 0.0269651 1.8706e-09
6.01371e-10 0.0269651 1.42786e-09
1.43619e-10 0.0269651 1.7325e-09
5.23492e-10 0.0269651 1.72451e-09
7.62296e-10 0.0269651 1.90766e-09
5.69315e-10 0.0269651 1.7107e-09
1.00409e-09 0.0269651 2.03437e-09
3.62128e-10 0.0269651 1.70304e-09
5.19221e-10 0.0269651 1.97271e-09
7.60773e-10 0.0269651 1.96366e-09
5.32895e-10 0.0269651 2.15252e-09
1.27841e-09 0.0269651 2.1511e-09