<?xml version="1.0"?>
<VTKFile type="UnstructuredGrid" version="0.1" byte_order="LittleEndian">
<UnstructuredGrid>
<Piece NumberOfPoints="1025" NumberOfCells="640">
<Points>
<DataArray type="Float32" NumberOfComponents="3" format="ascii">
0 0 0
0.025 0 0
0.05 0 0
0.075 0 0
0.1 0 0
0 0.025 0
0.025 0.025 0
0.05 0.025 0
0.075 0.025 0
0.1 0.025 0
0 0.05 0
0.025 0.05 0
0.05 0.05 0
0.075 0.05 0
0.1 0.05 0
0 0.075 0
0.025 0.075 0
0.05 0.075 0
0.075 0.075 0
0.1 0.075 0
0 0.1 0
0.025 0.1 0
0.05 0.1 0
0.075 0.1 0
0.1 0.1 0
0 0 0.025
0.025 0 0.025
0.05 0 0.025
0.075 0 0.025
0.1 0 0.025
0 0.025 0.025
0.025 0.025 0.025
0.05 0.025 0.025
0.075 0.025 0.025
0.1 0.025 0.025
0 0.05 0.025
0.025 0.05 0.025
0.05 0.05 0.025
0.075 0.05 0.025
0.1 0.05 0.025
0 0.075 0.025
0.025 0.075 0.025
0.05 0.075 0.025
0.075 0.075 0.025
0.1 0.075 0.025
0 0.1 0.025
0.025 0.1 0.025
0.05 0.1 0.025
0.075 0.1 0.025
0.1 0.1 0.025
0 0 0.05
0.025 0 0.05
0.05 0 0.05
0.075 0 0.05
0.1 0 0.05
0 0.025 0.05
0.025 0.025 0.05
0.05 0.025 0.05
0.075 0.025 0.05
0.1 0.025 0.05
0 0.05 0.05
0.025 0.05 0.05
0.05 0.05 0.05
0.075 0.05 0.05
0.1 0.05 0.05
0 0.075 0.05
0.025 0.075 0.05
0.05 0.075 0.05
0.075 0.075 0.05
0.1 0.075 0.05
0 0.1 0.05
0.025 0.1 0.05
0.05 0.1 0.05
0.075 0.1 0.05
0.1 0.1 0.05
0 0 0.075
0.025 0 0.075
0.05 0 0.075
0.075 0 0.075
0.1 0 0.075
0 0.025 0.075
0.025 0.025 0.075
0.05 0.025 0.075
0.075 0.025 0.075
0.1 0.025 0.075
0 0.05 0.075
0.025 0.05 0.075
0.05 0.05 0.075
0.075 0.05 0.075
0.1 0.05 0.075
0 0.075 0.075
0.025 0.075 0.075
0.05 0.075 0.075
0.075 0.075 0.075
0.1 0.075 0.075
0 0.1 0.075
0.025 0.1 0.075
0.05 0.1 0.075
0.075 0.1 0.075
0.1 0.1 0.075
0 0 0.1
0.025 0 0.1
0.05 0 0.1
0.075 0 0.1
0.1 0 0.1
0 0.025 0.1
0.025 0.025 0.1
0.05 0.025 0.1
0.075 0.025 0.1
0.1 0.025 0.1
0 0.05 0.1
0.025 0.05 0.1
0.05 0.05 0.1
0.075 0.05 0.1
0.1 0.05 0.1
0 0.075 0.1
0.025 0.075 0.1
0.05 0.075 0.1
0.075 0.075 0.1
0.1 0.075 0.1
0 0.1 0.1
0.025 0.1 0.1
0.05 0.1 0.1
0.075 0.1 0.1
0.1 0.1 0.1
0 0 0.125
0.025 0 0.125
0.05 0 0.125
0.075 0 0.125
0.1 0 0.125
0 0.025 0.125
0.025 0.025 0.125
0.05 0.025 0.125
0.075 0.025 0.125
0.1 0.025 0.125
0 0.05 0.125
0.025 0.05 0.125
0.05 0.05 0.125
0.075 0.05 0.125
0.1 0.05 0.125
0 0.075 0.125
0.025 0.075 0.125
0.05 0.075 0.125
0.075 0.075 0.125
0.1 0.075 0.125
0 0.1 0.125
0.025 0.1 0.125
0.05 0.1 0.125
0.075 0.1 0.125
0.1 0.1 0.125
0 0 0.15
0.025 0 0.15
0.05 0 0.15
0.075 0 0.15
0.1 0 0.15
0 0.025 0.15
0.025 0.025 0.15
0.05 0.025 0.15
0.075 0.025 0.15
0.1 0.025 0.15
0 0.05 0.15
0.025 0.05 0.15
0.05 0.05 0.15
0.075 0.05 0.15
0.1 0.05 0.15
0 0.075 0.15
0.025 0.075 0.15
0.05 0.075 0.15
0.075 0.075 0.15
0.1 0.075 0.15
0 0.1 0.15
0.025 0.1 0.15
0.05 0.1 0.15
0.075 0.1 0.15
0.1 0.1 0.15
0 0 0.175
0.025 0 0.175
0.05 0 0.175
0.075 0 0.175
0.1 0 0.175
0 0.025 0.175
0.025 0.025 0.175
0.05 0.025 0.175
0.075 0.025 0.175
0.1 0.025 0.175
0 0.05 0.175
0.025 0.05 0.175
0.05 0.05 0.175
0.075 0.05 0.175
0.1 0.05 0.175
0 0.075 0.175
0.025 0.075 0.175
0.05 0.075 0.175
0.075 0.075 0.175
0.1 0.075 0.175
0 0.1 0.175
0.025 0.1 0.175
0.05 0.1 0.175
0.075 0.1 0.175
0.1 0.1 0.175
0 0 0.2
0.025 0 0.2
0.05 0 0.2
0.075 0 0.2
0.1 0 0.2
0 0.025 0.2
0.025 0.025 0.2
0.05 0.025 0.2
0.075 0.025 0.2
0.1 0.025 0.2
0 0.05 0.2
0.025 0.05 0.2
0.05 0.05 0.2
0.075 0.05 0.2
0.1 0.05 0.2
0 0.075 0.2
0.025 0.075 0.2
0.05 0.075 0.2
0.075 0.075 0.2
0.1 0.075 0.2
0 0.1 0.2
0.025 0.1 0.2
0.05 0.1 0.2
0.075 0.1 0.2
0.1 0.1 0.2
0 0 0.225
0.025 0 0.225
0.05 0 0.225
0.075 0 0.225
0.1 0 0.225
0 0.025 0.225
0.025 0.025 0.225
0.05 0.025 0.225
0.075 0.025 0.225
0.1 0.025 0.225
0 0.05 0.225
0.025 0.05 0.225
0.05 0.05 0.225
0.075 0.05 0.225
0.1 0.05 0.225
0 0.075 0.225
0.025 0.075 0.225
0.05 0.075 0.225
0.075 0.075 0.225
0.1 0.075 0.225
0 0.1 0.225
0.025 0.1 0.225
0.05 0.1 0.225
0.075 0.1 0.225
0.1 0.1 0.225
0 0 0.25
0.025 0 0.25
0.05 0 0.25
0.075 0 0.25
0.1 0 0.25
0 0.025 0.25
0.025 0.025 0.25
0.05 0.025 0.25
0.075 0.025 0.25
0.1 0.025 0.25
0 0.05 0.25
0.025 0.05 0.25
0.05 0.05 0.25
0.075 0.05 0.25
0.1 0.05 0.25
0 0.075 0.25
0.025 0.075 0.25
0.05 0.075 0.25
0.075 0.075 0.25
0.1 0.075 0.25
0 0.1 0.25
0.025 0.1 0.25
0.05 0.1 0.25
0.075 0.1 0.25
0.1 0.1 0.25
0 0 0.275
0.025 0 0.275
0.05 0 0.275
0.075 0 0.275
0.1 0 0.275
0 0.025 0.275
0.025 0.025 0.275
0.05 0.025 0.275
0.075 0.025 0.275
0.1 0.025 0.275
0 0.05 0.275
0.025 0.05 0.275
0.05 0.05 0.275
0.075 0.05 0.275
0.1 0.05 0.275
0 0.075 0.275
0.025 0.075 0.275
0.05 0.075 0.275
0.075 0.075 0.275
0.1 0.075 0.275
0 0.1 0.275
0.025 0.1 0.275
0.05 0.1 0.275
0.075 0.1 0.275
0.1 0.1 0.275
0 0 0.3
0.025 0 0.3
0.05 0 0.3
0.075 0 0.3
0.1 0 0.3
0 0.025 0.3
0.025 0.025 0.3
0.05 0.025 0.3
0.075 0.025 0.3
0.1 0.025 0.3
0 0.05 0.3
0.025 0.05 0.3
0.05 0.05 0.3
0.075 0.05 0.3
0.1 0.05 0.3
0 0.075 0.3
0.025 0.075 0.3
0.05 0.075 0.3
0.075 0.075 0.3
0.1 0.075 0.3
0 0.1 0.3
0.025 0.1 0.3
0.05 0.1 0.3
0.075 0.1 0.3
0.1 0.1 0.3
0 0 0.325
0.025 0 0.325
0.05 0 0.325
0.075 0 0.325
0.1 0 0.325
0 0.025 0.325
0.025 0.025 0.325
0.05 0.025 0.325
0.075 0.025 0.325
0.1 0.025 0.325
0 0.05 0.325
0.025 0.05 0.325
0.05 0.05 0.325
0.075 0.05 0.325
0.1 0.05 0.325
0 0.075 0.325
0.025 0.075 0.325
0.05 0.075 0.325
0.075 0.075 0.325
0.1 0.075 0.325
0 0.1 0.325
0.025 0.1 0.325
0.05 0.1 0.325
0.075 0.1 0.325
0.1 0.1 0.325
0 0 0.35
0.025 0 0.35
0.05 0 0.35
0.075 0 0.35
0.1 0 0.35
0 0.025 0.35
0.025 0.025 0.35
0.05 0.025 0.35
0.075 0.025 0.35
0.1 0.025 0.35
0 0.05 0.35
0.025 0.05 0.35
0.05 0.05 0.35
0.075 0.05 0.35
0.1 0.05 0.35
0 0.075 0.35
0.025 0.075 0.35
0.05 0.075 0.35
0.075 0.075 0.35
0.1 0.075 0.35
0 0.1 0.35
0.025 0.1 0.35
0.05 0.1 0.35
0.075 0.1 0.35
0.1 0.1 0.35
0 0 0.375
0.025 0 0.375
0.05 0 0.375
0.075 0 0.375
0.1 0 0.375
0 0.025 0.375
0.025 0.025 0.375
0.05 0.025 0.375
0.075 0.025 0.375
0.1 0.025 0.375
0 0.05 0.375
0.025 0.05 0.375
0.05 0.05 0.375
0.075 0.05 0.375
0.1 0.05 0.375
0 0.075 0.375
0.025 0.075 0.375
0.05 0.075 0.375
0.075 0.075 0.375
0.1 0.075 0.375
0 0.1 0.375
0.025 0.1 0.375
0.05 0.1 0.375
0.075 0.1 0.375
0.1 0.1 0.375
0 0 0.4
0.025 0 0.4
0.05 0 0.4
0.075 0 0.4
0.1 0 0.4
0 0.025 0.4
0.025 0.025 0.4
0.05 0.025 0.4
0.075 0.025 0.4
0.1 0.025 0.4
0 0.05 0.4
0.025 0.05 0.4
0.05 0.05 0.4
0.075 0.05 0.4
0.1 0.05 0.4
0 0.075 0.4
0.025 0.075 0.4
0.05 0.075 0.4
0.075 0.075 0.4
0.1 0.075 0.4
0 0.1 0.4
0.025 0.1 0.4
0.05 0.1 0.4
0.075 0.1 0.4
0.1 0.1 0.4
0 0 0.425
0.025 0 0.425
0.05 0 0.425
0.075 0 0.425
0.1 0 0.425
0 0.025 0.425
0.025 0.025 0.425
0.05 0.025 0.425
0.075 0.025 0.425
0.1 0.025 0.425
0 0.05 0.425
0.025 0.05 0.425
0.05 0.05 0.425
0.075 0.05 0.425
0.1 0.05 0.425
0 0.075 0.425
0.025 0.075 0.425
0.05 0.075 0.425
0.075 0.075 0.425
0.1 0.075 0.425
0 0.1 0.425
0.025 0.1 0.425
0.05 0.1 0.425
0.075 0.1 0.425
0.1 0.1 0.425
0 0 0.45
0.025 0 0.45
0.05 0 0.45
0.075 0 0.45
0.1 0 0.45
0 0.025 0.45
0.025 0.025 0.45
0.05 0.025 0.45
0.075 0.025 0.45
0.1 0.025 0.45
0 0.05 0.45
0.025 0.05 0.45
0.05 0.05 0.45
0.075 0.05 0.45
0.1 0.05 0.45
0 0.075 0.45
0.025 0.075 0.45
0.05 0.075 0.45
0.075 0.075 0.45
0.1 0.075 0.45
0 0.1 0.45
0.025 0.1 0.45
0.05 0.1 0.45
0.075 0.1 0.45
0.1 0.1 0.45
0 0 0.475
0.025 0 0.475
0.05 0 0.475
0.075 0 0.475
0.1 0 0.475
0 0.025 0.475
0.025 0.025 0.475
0.05 0.025 0.475
0.075 0.025 0.475
0.1 0.025 0.475
0 0.05 0.475
0.025 0.05 0.475
0.05 0.05 0.475
0.075 0.05 0.475
0.1 0.05 0.475
0 0.075 0.475
0.025 0.075 0.475
0.05 0.075 0.475
0.075 0.075 0.475
0.1 0.075 0.475
0 0.1 0.475
0.025 0.1 0.475
0.05 0.1 0.475
0.075 0.1 0.475
0.1 0.1 0.475
0 0 0.5
0.025 0 0.5
0.05 0 0.5
0.075 0 0.5
0.1 0 0.5
0 0.025 0.5
0.025 0.025 0.5
0.05 0.025 0.5
0.075 0.025 0.5
0.1 0.025 0.5
0 0.05 0.5
0.025 0.05 0.5
0.05 0.05 0.5
0.075 0.05 0.5
0.1 0.05 0.5
0 0.075 0.5
0.025 0.075 0.5
0.05 0.075 0.5
0.075 0.075 0.5
0.1 0.075 0.5
0 0.1 0.5
0.025 0.1 0.5
0.05 0.1 0.5
0.075 0.1 0.5
0.1 0.1 0.5
0 0 0.525
0.025 0 0.525
0.05 0 0.525
0.075 0 0.525
0.1 0 0.525
0 0.025 0.525
0.025 0.025 0.525
0.05 0.025 0.525
0.075 0.025 0.525
0.1 0.025 0.525
0 0.05 0.525
0.025 0.05 0.525
0.05 0.05 0.525
0.075 0.05 0.525
0.1 0.05 0.525
0 0.075 0.525
0.025 0.075 0.525
0.05 0.075 0.525
0.075 0.075 0.525
0.1 0.075 0.525
0 0.1 0.525
0.025 0.1 0.525
0.05 0.1 0.525
0.075 0.1 0.525
0.1 0.1 0.525
0 0 0.55
0.025 0 0.55
0.05 0 0.55
0.075 0 0.55
0.1 0 0.55
0 0.025 0.55
0.025 0.025 0.55
0.05 0.025 0.55
0.075 0.025 0.55
0.1 0.025 0.55
0 0.05 0.55
0.025 0.05 0.55
0.05 0.05 0.55
0.075 0.05 0.55
0.1 0.05 0.55
0 0.075 0.55
0.025 0.075 0.55
0.05 0.075 0.55
0.075 0.075 0.55
0.1 0.075 0.55
0 0.1 0.55
0.025 0.1 0.55
0.05 0.1 0.55
0.075 0.1 0.55
0.1 0.1 0.55
0 0 0.575
0.025 0 0.575
0.05 0 0.575
0.075 0 0.575
0.1 0 0.575
0 0.025 0.575
0.025 0.025 0.575
0.05 0.025 0.575
0.075 0.025 0.575
0.1 0.025 0.575
0 0.05 0.575
0.025 0.05 0.575
0.05 0.05 0.575
0.075 0.05 0.575
0.1 0.05 0.575
0 0.075 0.575
0.025 0.075 0.575
0.05 0.075 0.575
0.075 0.075 0.575
0.1 0.075 0.575
0 0.1 0.575
0.025 0.1 0.575
0.05 0.1 0.575
0.075 0.1 0.575
0.1 0.1 0.575
0 0 0.6
0.025 0 0.6
0.05 0 0.6
0.075 0 0.6
0.1 0 0.6
0 0.025 0.6
0.025 0.025 0.6
0.05 0.025 0.6
0.075 0.025 0.6
0.1 0.025 0.6
0 0.05 0.6
0.025 0.05 0.6
0.05 0.05 0.6
0.075 0.05 0.6
0.1 0.05 0.6
0 0.075 0.6
0.025 0.075 0.6
0.05 0.075 0.6
0.075 0.075 0.6
0.1 0.075 0.6
0 0.1 0.6
0.025 0.1 0.6
0.05 0.1 0.6
0.075 0.1 0.6
0.1 0.1 0.6
0 0 0.625
0.025 0 0.625
0.05 0 0.625
0.075 0 0.625
0.1 0 0.625
0 0.025 0.625
0.025 0.025 0.625
0.05 0.025 0.625
0.075 0.025 0.625
0.1 0.025 0.625
0 0.05 0.625
0.025 0.05 0.625
0.05 0.05 0.625
0.075 0.05 0.625
0.1 0.05 0.625
0 0.075 0.625
0.025 0.075 0.625
0.05 0.075 0.625
0.075 0.075 0.625
0.1 0.075 0.625
0 0.1 0.625
0.025 0.1 0.625
0.05 0.1 0.625
0.075 0.1 0.625
0.1 0.1 0.625
0 0 0.65
0.025 0 0.65
0.05 0 0.65
0.075 0 0.65
0.1 0 0.65
0 0.025 0.65
0.025 0.025 0.65
0.05 0.025 0.65
0.075 0.025 0.65
0.1 0.025 0.65
0 0.05 0.65
0.025 0.05 0.65
0.05 0.05 0.65
0.075 0.05 0.65
0.1 0.05 0.65
0 0.075 0.65
0.025 0.075 0.65
0.05 0.075 0.65
0.075 0.075 0.65
0.1 0.075 0.65
0 0.1 0.65
0.025 0.1 0.65
0.05 0.1 0.65
0.075 0.1 0.65
0.1 0.1 0.65
0 0 0.675
0.025 0 0.675
0.05 0 0.675
0.075 0 0.675
0.1 0 0.675
[...]
<PointData Vectors="Displacement">
<DataArray type="Float32" Name="Displacement" NumberOfComponents="3" format="ascii">
0 0 0
0 0 0
0 0 0
0 0 0
0 0 0
0 0 0
0 0 0
0 0 0
0 0 0
0 0 0
0 0 0
0 0 0
0 0 0
0 0 0
0 0 0
0 0 0
0 0 0
0 0 0
0 0 0
0 0 0
0 0 0
0 0 0
0 0 0
0 0 0
0 0 0
-3.13063e-10 0.00113705 9.37959e-11
-3.23223e-10 0.00113705 9.54054e-11
-3.21766e-10 0.00113705 8.66596e-11
-3.30669e-10 0.00113705 8.76886e-11
-3.35329e-10 0.00113705 9.03544e-11
-3.21157e-10 0.00113705 9.6517e-11
-3.24354e-10 0.00113705 8.27579e-11
-3.24298e-10 0.00113705 8.37777e-11
-3.27037e-10 0.00113705 1.0041e-10
-3.24529e-10 0.00113705 9.32205e-11
-3.20189e-10 0.00113705 7.74551e-11
-3.23115e-10 0.00113705 8.05648e-11
-3.27597e-10 0.00113705 8.87341e-11
-3.25146e-10 0.00113705 9.81069e-11
-3.41597e-10 0.00113705 1.04733e-10
-2.81022e-10 0.00113705 1.08516e-10
-3.24916e-10 0.00113705 8.73047e-11
-3.21334e-10 0.00113705 1.03791e-10
-3.3423e-10 0.00113705 1.02252e-10
-3.70047e-10 0.00113705 1.14496e-10
-2.70396e-10 0.00113705 1.13885e-10
-3.12844e-10 0.00113705 1.10625e-10
-3.2975e-10 0.00113705 1.16616e-10
-3.34035e-10 0.00113705 1.08711e-10
-3.60223e-10 0.00113705 1.21437e-10
-6.40689e-10 0.00227482 1.65525e-10
-6.65692e-10 0.00227482 1.73496e-10
-6.44124e-10 0.00227482 1.62909e-10
-6.29184e-10 0.00227482 1.57221e-10
-6.53409e-10 0.00227482 1.41544e-10
-6.78105e-10 0.00227482 1.68124e-10
-6.58515e-10 0.00227482 1.61135e-10
-6.38728e-10 0.00227482 1.53219e-10
-6.34238e-10 0.00227482 1.71541e-10
-6.51609e-10 0.00227482 1.68398e-10
-6.60143e-10 0.00227482 1.69935e-10
-6.44447e-10 0.00227482 1.74511e-10
-6.43722e-10 0.00227482 1.68169e-10
-6.62035e-10 0.00227482 1.89234e-10
-6.28523e-10 0.00227482 1.9903e-10
-6.22423e-10 0.00227482 1.68016e-10
-6.45155e-10 0.00227482 1.71774e-10
-6.41396e-10 0.00227482 1.7488e-10
-6.72092e-10 0.00227482 1.93492e-10
-6.66809e-10 0.00227482 1.86582e-10
-5.69478e-10 0.00227482 1.86408e-10
-6.51724e-10 0.00227482 1.73483e-10
-6.5851e-10 0.00227482 1.85087e-10
-6.62695e-10 0.00227482 1.99924e-10
-6.8639e-10 0.00227482 1.99711e-10
-1.05987e-09 0.00341402 2.66944e-10
-1.02678e-09 0.00341402 2.40166e-10
-9.17724e-10 0.00341402 2.48221e-10
-9.94991e-10 0.00341402 2.68889e-10
-8.69288e-10 0.00341402 2.32927e-10
-1.03531e-09 0.00341402 1.91797e-10
-1.01815e-09 0.00341402 2.17989e-10
-9.4934e-10 0.00341402 2.48387e-10
-9.51824e-10 0.00341402 2.53471e-10
-8.71729e-10 0.00341402 2.43931e-10
-1.0179e-09 0.00341402 2.40238e-10
-9.78231e-10 0.00341402 2.53369e-10
-9.71767e-10 0.00341402 2.56605e-10
-9.35999e-10 0.00341402 2.29024e-10
-9.3819e-10 0.00341402 2.30303e-10
-9.45967e-10 0.00341402 2.3816e-10
-9.88058e-10 0.00341402 2.2509e-10
-9.75678e-10 0.00341402 2.24212e-10
-9.80653e-10 0.00341402 2.42241e-10
-9.43717e-10 0.00341402 2.67814e-10
-9.9066e-10 0.00341402 1.96251e-10
-9.8571e-10 0.00341402 2.51244e-10
-9.59638e-10 0.00341402 1.95314e-10
-9.71043e-10 0.00341402 2.28665e-10
-1.01203e-09 0.00341402 2.4703e-10
-1.49647e-09 0.00455535 1.78797e-10
-1.3385e-09 0.00455535 2.67155e-10
-1.24426e-09 0.00455535 2.18386e-10
-1.24189e-09 0.00455535 2.35439e-10
-1.11592e-09 0.00455535 2.70925e-10
-1.45991e-09 0.00455535 2.20113e-10
-1.3472e-09 0.00455535 1.86653e-10
-1.25917e-09 0.00455535 2.23354e-10
-1.25343e-09 0.00455535 2.57157e-10
-1.15761e-09 0.00455535 2.76385e-10
-1.41174e-09 0.00455535 1.92304e-10
-1.33511e-09 0.00455535 2.02096e-10
-1.27095e-09 0.00455535 2.39378e-10
-1.24872e-09 0.00455535 2.68476e-10
-1.11628e-09 0.00455535 2.59564e-10
-1.36939e-09 0.00455535 2.32599e-10
-1.32891e-09 0.00455535 2.24601e-10
-1.28448e-09 0.00455535 2.35169e-10
-1.22841e-09 0.00455535 2.77675e-10
-1.19954e-09 0.00455535 2.66568e-10
-1.30137e-09 0.00455535 2.92562e-10
-1.32822e-09 0.00455535 2.32907e-10
-1.23495e-09 0.00455535 2.56393e-10
-1.24231e-09 0.00455535 2.53039e-10
-1.23191e-09 0.00455535 2.31375e-10
-1.85898e-09 0.00569949 1.37743e-10
-1.7535e-09 0.00569949 1.12336e-10
-1.60572e-09 0.00569949 1.30265e-10
-1.46562e-09 0.00569949 7.25422e-11
-1.46876e-09 0.00569949 1.94554e-10
-1.80758e-09 0.00569949 1.22618e-10
-1.68816e-09 0.00569949 1.36405e-10
-1.54744e-09 0.00569949 1.5719e-10
-1.48694e-09 0.00569949 2.09404e-10
-1.44833e-09 0.00569949 2.13829e-10
-1.76669e-09 0.00569949 1.24368e-10
-1.69896e-09 0.00569949 1.425e-10
-1.52508e-09 0.00569949 1.94049e-10
-1.49675e-09 0.00569949 2.63112e-10
-1.46234e-09 0.00569949 3.13217e-10
-1.77325e-09 0.00569949 2.08571e-10
-1.61257e-09 0.00569949 1.73643e-10
-1.5417e-09 0.00569949 2.65711e-10
-1.546e-09 0.00569949 2.69555e-10
-1.37423e-09 0.00569949 2.79952e-10
-1.64399e-09 0.00569949 2.53082e-10
-1.60807e-09 0.00569949 3.09198e-10
-1.56052e-09 0.00569949 3.12775e-10
-1.5213e-09 0.00569949 2.52571e-10
-1.34662e-09 0.00569949 3.25604e-10
-2.13737e-09 0.0068471 1.07996e-10
-2.12521e-09 0.0068471 4.48219e-11
-1.84382e-09 0.0068471 -2.45763e-11
-1.79419e-09 0.0068471 1.52166e-10
-1.47043e-09 0.0068471 1.28588e-10
-2.25351e-09 0.0068471 5.2832e-11
-2.02279e-09 0.0068471 3.12048e-11
-1.82552e-09 0.0068471 7.69742e-11
-1.74637e-09 0.0068471 5.73593e-11
-1.62966e-09 0.00684709 1.34315e-10
-2.28267e-09 0.0068471 6.72687e-11
-1.97883e-09 0.0068471 8.46081e-11
-1.77722e-09 0.0068471 9.65762e-11
-1.70402e-09 0.0068471 1.35924e-10
-1.73383e-09 0.0068471 1.08203e-10
-2.03151e-09 0.0068471 1.07775e-10
-1.96344e-09 0.0068471 1.1774e-10
-1.8131e-09 0.00684709 1.61864e-10
-1.76545e-09 0.0068471 1.37895e-10
-1.76318e-09 0.0068471 1.87276e-10
-2.1814e-09 0.0068471 1.3464e-10
-1.88278e-09 0.0068471 1.38846e-10
-1.83976e-09 0.0068471 1.13848e-10
-1.81547e-09 0.0068471 2.47655e-10
-1.66221e-09 0.0068471 1.29116e-10
-2.51354e-09 0.00799882 -1.27865e-10
-2.43929e-09 0.00799882 -1.16968e-10
-2.10209e-09 0.00799882 -2.87539e-11
-1.81928e-09 0.00799881 -1.29795e-10
-1.87613e-09 0.00799881 -6.54287e-11
-2.53824e-09 0.00799882 -8.93519e-11
-2.39547e-09 0.00799881 -8.43173e-11
-2.11737e-09 0.00799881 -1.25838e-10
-1.8928e-09 0.00799881 -5.66519e-13
-1.83496e-09 0.00799881 -9.7426e-11
-2.5725e-09 0.00799881 1.44982e-11
-2.27228e-09 0.00799881 -3.69238e-11
-2.12605e-09 0.00799881 -2.86589e-11
-1.97167e-09 0.00799881 -7.34766e-11
-1.86659e-09 0.00799881 -8.33446e-11
-2.38427e-09 0.00799881 -8.18887e-11
-2.25751e-09 0.00799881 -6.73284e-11
-2.12421e-09 0.00799881 -1.54356e-10
-2.02519e-09 0.00799881 -7.22541e-11
-1.93067e-09 0.00799881 -1.31966e-10
-2.3371e-09 0.00799881 -6.56613e-11
-2.21593e-09 0.00799881 -1.03628e-10
-2.03227e-09 0.00799881 -1.17477e-10
-2.04459e-09 0.00799881 -1.02128e-10
-2.01544e-09 0.00799881 -7.54108e-11
-2.78096e-09 0.00915527 -3.6034e-10
-2.74529e-09 0.00915527 -4.18657e-10
-2.31668e-09 0.00915527 -2.501e-10
-2.32051e-09 0.00915527 -1.99488e-10
-1.82954e-09 0.00915527 -3.54096e-10
-2.93312e-09 0.00915527 -2.27871e-10
-2.58799e-09 0.00915527 -1.83993e-10
-2.39896e-09 0.00915527 -2.05754e-10
-2.28975e-09 0.00915527 -2.94536e-10
-1.86784e-09 0.00915527 -3.00998e-10
-2.82645e-09 0.00915527 -2.28996e-10
-2.60671e-09 0.00915527 -3.05197e-10
-2.33357e-09 0.00915527 -3.18223e-10
-2.33401e-09 0.00915527 -2.94054e-10
-1.9983e-09 0.00915527 -3.25581e-10
-2.74994e-09 0.00915527 -3.53242e-10
-2.52818e-09 0.00915527 -3.22778e-10
-2.37016e-09 0.00915527 -3.95663e-10
-2.29147e-09 0.00915527 -3.8747e-10
-2.1114e-09 0.00915527 -2.91816e-10
-2.59683e-09 0.00915527 -3.64697e-10
-2.69468e-09 0.00915527 -3.68718e-10
-2.36673e-09 0.00915527 -5.89863e-10
-2.22515e-09 0.00915527 -3.06619e-10
-2.10296e-09 0.00915527 -4.45722e-10
-2.81416e-09 0.0103171 -5.78128e-10
-2.70536e-09 0.010317 -7.4664e-10
-2.61531e-09 0.010317 -5.60389e-10
-2.51764e-09 0.010317 -6.82755e-10
-2.3904e-09 0.010317 -7.25109e-10
-2.86733e-09 0.010317 -6.92451e-10
-2.80062e-09 0.0103171 -6.04436e-10
-2.65671e-09 0.010317 -6.59153e-10
-2.51557e-09 0.0103171 -6.84008e-10
-2.38409e-09 0.010317 -6.79935e-10
-2.86055e-09 0.0103171 -6.6556e-10
-2.83333e-09 0.010317 -5.97309e-10
-2.62451e-09 0.010317 -7.25255e-10
-2.47283e-09 0.010317 -6.84926e-10
-2.26728e-09 0.010317 -5.75921e-10
-2.98165e-09 0.010317 -7.40082e-10
-2.78478e-09 0.010317 -7.12037e-10
-2.58197e-09 0.010317 -7.09284e-10
-2.32756e-09 0.010317 -6.39839e-10
-2.36236e-09 0.010317 -6.66981e-10
-3.05375e-09 0.010317 -7.99586e-10
-2.67011e-09 0.010317 -8.9619e-10
-2.5554e-09 0.010317 -6.3837e-10
-2.4122e-09 0.010317 -8.1681e-10
-2.33114e-09 0.010317 -6.06381e-10
-3.01821e-09 0.0114847 -1.02655e-09
-2.91093e-09 0.0114847 -1.03835e-09
-2.70326e-09 0.0114847 -1.2089e-09
-2.66932e-09 0.0114847 -1.12664e-09
-2.39052e-09 0.0114847 -1.00912e-09
-3.06971e-09 0.0114847 -1.10019e-09
-2.94909e-09 0.0114847 -1.0926e-09
-2.79553e-09 0.0114847 -1.11122e-09
-2.66493e-09 0.0114847 -1.1185e-09
-2.3951e-09 0.0114847 -1.07054e-09
-3.2192e-09 0.0114847 -1.0628e-09
-2.94937e-09 0.0114847 -1.08065e-09
-2.84673e-09 0.0114847 -1.0831e-09
-2.59301e-09 0.0114847 -1.04148e-09
-2.26681e-09 0.0114847 -1.12547e-09
-3.12033e-09 0.0114847 -1.07558e-09
-3.01405e-09 0.0114847 -1.12661e-09
-2.73925e-09 0.0114847 -1.15493e-09
-2.58046e-09 0.0114847 -1.20025e-09
-2.26843e-09 0.0114847 -1.11472e-09
-2.97802e-09 0.0114847 -1.04982e-09
-3.09405e-09 0.0114847 -1.10185e-09
-2.6175e-09 0.0114847 -1.21403e-09
-2.64666e-09 0.0114847 -1.1547e-09
-2.37399e-09 0.0114847 -1.26078e-09
-2.98476e-09 0.0126588 -1.49763e-09
-3.07708e-09 0.0126588 -1.526e-09
-2.90815e-09 0.0126588 -1.46781e-09
-2.75927e-09 0.0126588 -1.42869e-09
-2.75368e-09 0.0126588 -1.21916e-09
-3.24485e-09 0.0126588 -1.4684e-09
-3.07398e-09 0.0126588 -1.42516e-09
-2.90566e-09 0.0126588 -1.51983e-09
-2.78081e-09 0.0126588 -1.41407e-09
-2.56375e-09 0.0126588 -1.39547e-09
-3.3703e-09 0.0126588 -1.45732e-09
-3.07018e-09 0.0126588 -1.67939e-09
-2.90072e-09 0.0126588 -1.56294e-09
-2.81965e-09 0.0126588 -1.58833e-09
-2.4354e-09 0.0126588 -1.40615e-09
-3.44981e-09 0.0126588 -1.49021e-09
-3.0962e-09 0.0126588 -1.53758e-09
-2.96324e-09 0.0126588 -1.59408e-09
-2.68318e-09 0.0126588 -1.49605e-09
-2.49462e-09 0.0126588 -1.51655e-09
-3.11324e-09 0.0126588 -1.34003e-09
-3.2698e-09 0.0126588 -1.41882e-09
-2.85457e-09 0.0126588 -1.67448e-09
-2.54244e-09 0.0126588 -1.7155e-09
-2.85321e-09 0.0126588 -1.47386e-09
-2.98129e-09 0.0138397 -1.97984e-09
-3.10398e-09 0.0138397 -1.85085e-09
-3.07359e-09 0.0138397 -1.83137e-09
-2.90613e-09 0.0138397 -2.03347e-09
-3.19474e-09 0.0138397 -1.87929e-09
-3.16612e-09 0.0138397 -1.91355e-09
-3.10864e-09 0.0138397 -1.95833e-09
-2.92579e-09 0.0138397 -1.87421e-09
-2.90927e-09 0.0138397 -1.96684e-09
-2.59845e-09 0.0138397 -2.01264e-09
-3.31494e-09 0.0138397 -1.9868e-09
-3.16414e-09 0.0138397 -1.90364e-09
-2.83579e-09 0.0138397 -2.06404e-09
-2.80592e-09 0.0138397 -1.86116e-09
-2.6566e-09 0.0138397 -1.96385e-09
-3.34902e-09 0.0138397 -1.9333e-09
-3.19122e-09 0.0138397 -2.02843e-09
-2.79357e-09 0.0138397 -1.79541e-09
-2.7416e-09 0.0138397 -1.91946e-09
-2.55874e-09 0.0138397 -1.90463e-09
-3.28702e-09 0.0138397 -1.97497e-09
-3.23147e-09 0.0138397 -1.84304e-09
-2.83741e-09 0.0138397 -2.15285e-09
-2.83643e-09 0.0138397 -1.98882e-09
-2.6348e-09 0.0138397 -1.96296e-09
-3.3283e-09 0.0150279 -2.35921e-09
-2.98564e-09 0.0150279 -2.43324e-09
-2.98114e-09 0.0150279 -2.4412e-09
-2.99005e-09 0.0150279 -2.59369e-09
-2.25178e-09 0.0150279 -2.68324e-09
-3.24994e-09 0.0150279 -2.34315e-09
-3.13524e-09 0.0150279 -2.392e-09
-2.94565e-09 0.0150279 -2.5183e-09
-2.69724e-09 0.0150278 -2.43552e-09
-2.79902e-09 0.0150278 -2.44223e-09
-3.49337e-09 0.0150279 -2.31165e-09
-3.05958e-09 0.0150279 -2.2751e-09
-2.76292e-09 0.0150279 -2.3557e-09
-2.60643e-09 0.0150279 -2.49583e-09
-2.72375e-09 0.0150279 -2.54692e-09
-3.40897e-09 0.0150279 -2.36398e-09
-3.05136e-09 0.0150279 -2.3882e-09
-2.75006e-09 0.0150279 -2.33396e-09
-2.7034e-09 0.0150279 -2.45511e-09
-2.50663e-09 0.0150279 -2.49768e-09
-3.53191e-09 0.0150279 -2.37319e-09
-3.09772e-09 0.0150278 -2.35497e-09
-2.75424e-09 0.0150278 -2.30499e-09
-2.54488e-09 0.0150278 -2.25216e-09
-2.47941e-09 0.0150279 -2.54323e-09
-2.86771e-09 0.0162237 -2.47844e-09
-2.90854e-09 0.0162237 -2.82911e-09
-2.82847e-09 0.0162237 -2.93465e-09
-2.75035e-09 0.0162237 -3.03534e-09
-2.91249e-09 0.0162237 -2.74471e-09
-2.96082e-09 0.0162237 -2.72144e-09
-2.94219e-09 0.0162237 -2.8262e-09
-2.81009e-09 0.0162237 -2.82089e-09
-2.68729e-09 0.0162237 -2.86789e-09
-2.58693e-09 0.0162237 -2.9963e-09
-3.26215e-09 0.0162237 -2.8496e-09
-2.92584e-09 0.0162237 -2.67266e-09
-2.66258e-09 0.0162237 -2.7076e-09
-2.6554e-09 0.0162237 -3.03914e-09
-2.58025e-09 0.0162237 -3.03241e-09
-3.2808e-09 0.0162237 -2.81111e-09
-2.93817e-09 0.0162237 -2.82956e-09
-2.55105e-09 0.0162237 -2.82457e-09
-2.6036e-09 0.0162237 -2.9932e-09
-2.57581e-09 0.0162237 -2.97582e-09
-3.20098e-09 0.0162237 -2.65302e-09
-2.80586e-09 0.0162237 -2.84232e-09
-2.60019e-09 0.0162237 -2.77355e-09
-2.6228e-09 0.0162237 -2.82923e-09
-2.36998e-09 0.0162237 -2.64507e-09
-3.01836e-09 0.0174275 -3.0999e-09
-2.71441e-09 0.0174275 -3.2031e-09
-2.63317e-09 0.0174275 -3.55093e-09
-2.61634e-09 0.0174275 -3.53059e-09
-2.20241e-09 0.0174275 -3.47985e-09
-2.86694e-09 0.0174275 -3.3287e-09
-2.79343e-09 0.0174275 -3.2825e-09
-2.56115e-09 0.0174275 -3.33761e-09
-2.58777e-09 0.0174275 -3.48422e-09
-2.54939e-09 0.0174275 -3.68102e-09
-3.10193e-09 0.0174275 -3.24916e-09
-2.7138e-09 0.0174275 -3.24864e-09
-2.52418e-09 0.0174275 -3.25183e-09
-2.46402e-09 0.0174275 -3.4354e-09
-2.36565e-09 0.0174275 -3.71915e-09
-2.91134e-09 0.0174275 -3.33617e-09
-2.80731e-09 0.0174275 -3.28083e-09
-2.56319e-09 0.0174275 -3.30312e-09
-2.38904e-09 0.0174275 -3.39441e-09
-2.31878e-09 0.0174275 -3.39886e-09
-2.53385e-09 0.0174275 -3.49059e-09
-2.8432e-09 0.0174275 -3.44279e-09
-2.38979e-09 0.0174275 -3.34968e-09
-2.51651e-09 0.0174275 -3.52025e-09
-2.29967e-09 0.0174275 -3.22028e-09
-3.1349e-09 0.0186397 -3.97659e-09
-2.43061e-09 0.0186397 -3.62455e-09
-2.36305e-09 0.0186397 -3.73785e-09
-2.30932e-09 0.0186397 -3.89044e-09
-1.88454e-09 0.0186397 -3.88696e-09
-2.7968e-09 0.0186397 -3.91196e-09
-2.4592e-09 0.0186397 -3.81311e-09
-2.29735e-09 0.0186397 -3.82823e-09
-2.39603e-09 0.0186397 -4.05672e-09
-2.22412e-09 0.0186397 -3.91135e-09
-2.65361e-09 0.0186397 -3.7663e-09
-2.51653e-09 0.0186397 -3.80012e-09
-2.22738e-09 0.0186397 -3.80105e-09
-2.30747e-09 0.0186397 -3.98976e-09
-1.8787e-09 0.0186397 -3.92451e-09
-2.57734e-09 0.0186397 -4.0083e-09
-2.54819e-09 0.0186397 -3.73821e-09
-2.2825e-09 0.0186397 -3.68905e-09
-2.2249e-09 0.0186397 -3.7671e-09
-1.90571e-09 0.0186397 -3.96265e-09
-2.55906e-09 0.0186397 -3.86798e-09
-2.45864e-09 0.0186397 -4.06682e-09
-2.50488e-09 0.0186397 -3.81374e-09
-1.87688e-09 0.0186397 -3.85679e-09
-2.22871e-09 0.0186397 -3.72715e-09
-2.23217e-09 0.0198603 -4.03651e-09
-2.35614e-09 0.0198603 -4.15488e-09
-1.91232e-09 0.0198603 -3.86517e-09
-2.18607e-09 0.0198603 -4.07027e-09
-2.03239e-09 0.0198603 -4.02208e-09
-2.1614e-09 0.0198603 -4.10015e-09
-2.34257e-09 0.0198603 -4.22418e-09
-2.12437e-09 0.0198603 -4.19476e-09
-2.1879e-09 0.0198603 -3.96592e-09
-1.76484e-09 0.0198603 -4.13218e-09
-2.40186e-09 0.0198603 -4.39659e-09
-2.17474e-09 0.0198603 -4.36332e-09
-2.1359e-09 0.0198603 -4.23064e-09
-1.93275e-09 0.0198603 -4.132e-09
-1.865e-09 0.0198603 -4.03541e-09
-2.21347e-09 0.0198603 -4.28606e-09
-2.30477e-09 0.0198603 -4.49218e-09
-2.02793e-09 0.0198603 -4.10305e-09
-1.9213e-09 0.0198603 -4.19289e-09
-1.83582e-09 0.0198603 -4.09903e-09
-1.94628e-09 0.0198603 -4.19758e-09
-2.36811e-09 0.0198603 -4.23828e-09
-1.8703e-09 0.0198603 -4.02073e-09
-1.79515e-09 0.0198603 -3.926e-09
-2.22199e-09 0.0198603 -4.0882e-09
-2.31538e-09 0.0210896 -4.39196e-09
-2.08297e-09 0.0210896 -4.16261e-09
-2.00699e-09 0.0210896 -4.19148e-09
-1.80403e-09 0.0210896 -4.22682e-09
-1.56152e-09 0.0210896 -4.18466e-09
-2.09254e-09 0.0210896 -4.5572e-09
-2.03353e-09 0.0210896 -4.56267e-09
-1.79081e-09 0.0210896 -4.21712e-09
-1.81295e-09 0.0210896 -4.1799e-09
-1.31745e-09 0.0210896 -4.26752e-09
-2.28407e-09 0.0210896 -4.28853e-09
-2.17659e-09 0.0210896 -4.54885e-09
-1.78456e-09 0.0210896 -4.47094e-09
-1.54872e-09 0.0210896 -4.18963e-09
-1.32947e-09 0.0210896 -4.13426e-09
-2.14943e-09 0.0210896 -4.49606e-09
-2.1834e-09 0.0210896 -4.29707e-09
-1.86337e-09 0.0210896 -4.4737e-09
-1.60042e-09 0.0210896 -4.39056e-09
-1.56921e-09 0.0210896 -4.35502e-09
-1.9962e-09 0.0210896 -4.15342e-09
-2.14998e-09 0.0210896 -4.51552e-09
-1.71464e-09 0.0210896 -4.36714e-09
-1.67365e-09 0.0210896 -4.27256e-09
-1.47369e-09 0.0210896 -4.32521e-09
-2.26659e-09 0.0223276 -4.49926e-09
-1.69972e-09 0.0223276 -4.32429e-09
-1.76535e-09 0.0223276 -4.57638e-09
-1.52743e-09 0.0223276 -4.45781e-09
-1.02694e-09 0.0223276 -4.22917e-09
-2.48833e-09 0.0223276 -4.11382e-09
-1.82976e-09 0.0223276 -4.32561e-09
-1.53228e-09 0.0223276 -4.22568e-09
-1.49393e-09 0.0223276 -4.17362e-09
-1.39364e-09 0.0223276 -4.39256e-09
-2.18162e-09 0.0223276 -4.23726e-09
-1.91776e-09 0.0223276 -4.20584e-09
-1.68708e-09 0.0223276 -4.24251e-09
-1.48222e-09 0.0223276 -4.26945e-09
-9.88194e-10 0.0223276 -4.33232e-09
-2.20797e-09 0.0223276 -4.1033e-09
-1.9231e-09 0.0223276 -4.27673e-09
-1.70914e-09 0.0223276 -4.00351e-09
-1.33833e-09 0.0223276 -4.1507e-09
-8.64791e-10 0.0223276 -4.09325e-09
-2.64046e-09 0.0223276 -4.1139e-09
-1.89238e-09 0.0223276 -4.20662e-09
-1.60963e-09 0.0223276 -4.30903e-09
-1.60134e-09 0.0223276 -4.43479e-09
-5.97147e-10 0.0223276 -4.18962e-09
-1.96096e-09 0.0235744 -3.30257e-09
-1.46031e-09 0.0235744 -3.75674e-09
-1.30349e-09 0.0235744 -3.82861e-09
-1.63057e-09 0.0235744 -3.76808e-09
-8.16435e-10 0.0235744 -3.90904e-09
-1.89086e-09 0.0235744 -3.81341e-09
-1.55764e-09 0.0235744 -3.57097e-09
-1.40487e-09 0.0235744 -3.86356e-09
-1.30718e-09 0.0235744 -3.81764e-09
-9.2953e-10 0.0235744 -3.7091e-09
-1.63544e-09 0.0235744 -3.49201e-09
-1.74755e-09 0.0235744 -3.63136e-09
-1.35396e-09 0.0235744 -3.55535e-09
-1.22899e-09 0.0235744 -3.78969e-09
-1.0475e-09 0.0235744 -3.86776e-09
-1.80259e-09 0.0235744 -3.68474e-09
-1.74935e-09 0.0235744 -3.61748e-09
-1.50839e-09 0.0235744 -3.44118e-09
-1.273e-09 0.0235744 -3.48586e-09
-9.43093e-10 0.0235744 -3.77739e-09
-2.00831e-09 0.0235744 -3.4119e-09
-1.76877e-09 0.0235744 -3.58087e-09
-1.55457e-09 0.0235744 -3.59042e-09
-1.34569e-09 0.0235744 -3.56441e-09
-7.06481e-10 0.0235744 -3.57886e-09
-1.13544e-09 0.0248301 -2.74767e-09
-1.3603e-09 0.0248301 -2.73293e-09
-9.67429e-10 0.0248301 -2.85457e-09
-1.13635e-09 0.0248301 -2.83398e-09
-5.92759e-10 0.0248301 -2.68931e-09
-1.50273e-09 0.0248301 -2.85224e-09
-1.24645e-09 0.0248301 -3.03325e-09
-1.1903e-09 0.0248301 -2.97582e-09
-1.18467e-09 0.0248301 -2.90416e-09
-6.5064e-10 0.0248301 -2.61414e-09
-1.82399e-09 0.02483 -2.98735e-09
-1.48371e-09 0.0248301 -2.88287e-09
-1.22406e-09 0.0248301 -2.91904e-09
-1.22252e-09 0.0248301 -2.75779e-09
-7.31514e-10 0.0248301 -2.87873e-09
-1.59949e-09 0.0248301 -2.57821e-09
-1.61123e-09 0.02483 -2.68665e-09
-1.24558e-09 0.0248301 -2.71546e-09
-1.37437e-09 0.0248301 -2.91805e-09
-9.12992e-10 0.02483 -2.67404e-09
-1.46837e-09 0.0248301 -2.45931e-09
-1.50242e-09 0.0248301 -2.73528e-09
-1.39416e-09 0.0248301 -2.66472e-09
-1.11451e-09 0.0248301 -2.69266e-09
-1.20189e-09 0.02483 -2.60077e-09
-5.90457e-10 0.0260945 -1.89809e-09
-1.04226e-09 0.0260945 -1.98114e-09
-9.97819e-10 0.0260945 -2.42851e-09
-9.81696e-10 0.0260945 -1.84465e-09
-6.17396e-10 0.0260945 -1.61903e-09
-1.34041e-09 0.0260945 -1.91103e-09
-1.14487e-09 0.0260945 -1.91249e-09
-9.38013e-10 0.0260945 -2.10724e-09
-9.12432e-10 0.0260945 -1.75958e-09
-1.2384e-09 0.0260945 -1.77389e-09
-1.82818e-09 0.0260945 -1.91647e-09
-1.15505e-09 0.0260945 -1.82942e-09
-9.85325e-10 0.0260945 -1.71606e-09
-1.18209e-09 0.0260945 -1.78288e-09
-8.0855e-10 0.0260945 -1.60479e-09
-8.65248e-10 0.0260945 -1.90767e-09
-1.18884e-09 0.0260945 -1.65019e-09
-1.23304e-09 0.0260945 -1.62087e-09
-1.2855e-09 0.0260945 -1.78735e-09
-1.07791e-09 0.0260945 -1.61179e-09
-5.84857e-11 0.0260945 -1.25312e-09
-1.46901e-09 0.0260945 -1.64336e-09
-1.24467e-09 0.0260945 -1.79247e-09
-1.0073e-09 0.0260945 -1.24213e-09
-1.46814e-09 0.0260945 -1.53344e-09
-1.37995e-09 0.0273676 -7.20046e-10