<?xml version="1.0"?>
<VTKFile type="UnstructuredGrid" version="0.1" byte_order="LittleEndian">
<UnstructuredGrid>
<Piece NumberOfPoints="1025" NumberOfCells="640">
<Points>
<DataArray type="Float32" NumberOfComponents="3" format="ascii">
0 0 0
0.025 0 0
0.05 0 0
0.075 0 0
0.1 0 0
0 0.025 0
0.025 0.025 0
0.05 0.025 0
0.075 0.025 0
0.1 0.025 0
0 0.05 0
0.025 0.05 0
0.05 0.05 0
0.075 0.05 0
0.1 0.05 0
0 0.075 0
0.025 0.075 0
0.05 0.075 0
0.075 0.075 0
0.1 0.075 0
0 0.1 0
0.025 0.1 0
0.05 0.1 0
0.075 0.1 0
0.1 0.1 0
0 0 0.025
0.025 0 0.025
0.05 0 0.025
0.075 0 0.025
0.1 0 0.025
0 0.025 0.025
0.025 0.025 0.025
0.05 0.025 0.025
0.075 0.025 0.025
0.1 0.025 0.025
0 0.05 0.025
0.025 0.05 0.025
0.05 0.05 0.025
0.075 0.05 0.025
0.1 0.05 0.025
0 0.075 0.025
0.025 0.075 0.025
0.05 0.075 0.025
0.075 0.075 0.025
0.1 0.075 0.025
0 0.1 0.025
0.025 0.1 0.025
0.05 0.1 0.025
0.075 0.1 0.025
0.1 0.1 0.025
0 0 0.05
0.025 0 0.05
0.05 0 0.05
0.075 0 0.05
0.1 0 0.05
0 0.025 0.05
0.025 0.025 0.05
0.05 0.025 0.05
0.075 0.025 0.05
0.1 0.025 0.05
0 0.05 0.05
0.025 0.05 0.05
0.05 0.05 0.05
0.075 0.05 0.05
0.1 0.05 0.05
0 0.075 0.05
0.025 0.075 0.05
0.05 0.075 0.05
0.075 0.075 0.05
0.1 0.075 0.05
0 0.1 0.05
0.025 0.1 0.05
0.05 0.1 0.05
0.075 0.1 0.05
0.1 0.1 0.05
0 0 0.075
0.025 0 0.075
0.05 0 0.075
0.075 0 0.075
0.1 0 0.075
0 0.025 0.075
0.025 0.025 0.075
0.05 0.025 0.075
0.075 0.025 0.075
0.1 0.025 0.075
0 0.05 0.075
0.025 0.05 0.075
0.05 0.05 0.075
0.075 0.05 0.075
0.1 0.05 0.075
0 0.075 0.075
0.025 0.075 0.075
0.05 0.075 0.075
0.075 0.075 0.075
0.1 0.075 0.075
0 0.1 0.075
0.025 0.1 0.075
0.05 0.1 0.075
0.075 0.1 0.075
0.1 0.1 0.075
0 0 0.1
0.025 0 0.1
0.05 0 0.1
0.075 0 0.1
0.1 0 0.1
0 0.025 0.1
0.025 0.025 0.1
0.05 0.025 0.1
0.075 0.025 0.1
0.1 0.025 0.1
0 0.05 0.1
0.025 0.05 0.1
0.05 0.05 0.1
0.075 0.05 0.1
0.1 0.05 0.1
0 0.075 0.1
0.025 0.075 0.1
0.05 0.075 0.1
0.075 0.075 0.1
0.1 0.075 0.1
0 0.1 0.1
0.025 0.1 0.1
0.05 0.1 0.1
0.075 0.1 0.1
0.1 0.1 0.1
0 0 0.125
0.025 0 0.125
0.05 0 0.125
0.075 0 0.125
0.1 0 0.125
0 0.025 0.125
0.025 0.025 0.125
0.05 0.025 0.125
0.075 0.025 0.125
0.1 0.025 0.125
0 0.05 0.125
0.025 0.05 0.125
0.05 0.05 0.125
0.075 0.05 0.125
0.1 0.05 0.125
0 0.075 0.125
0.025 0.075 0.125
0.05 0.075 0.125
0.075 0.075 0.125
0.1 0.075 0.125
0 0.1 0.125
0.025 0.1 0.125
0.05 0.1 0.125
0.075 0.1 0.125
0.1 0.1 0.125
0 0 0.15
0.025 0 0.15
0.05 0 0.15
0.075 0 0.15
0.1 0 0.15
0 0.025 0.15
0.025 0.025 0.15
0.05 0.025 0.15
0.075 0.025 0.15
0.1 0.025 0.15
0 0.05 0.15
0.025 0.05 0.15
0.05 0.05 0.15
0.075 0.05 0.15
0.1 0.05 0.15
0 0.075 0.15
0.025 0.075 0.15
0.05 0.075 0.15
0.075 0.075 0.15
0.1 0.075 0.15
0 0.1 0.15
0.025 0.1 0.15
0.05 0.1 0.15
0.075 0.1 0.15
0.1 0.1 0.15
0 0 0.175
0.025 0 0.175
0.05 0 0.175
0.075 0 0.175
0.1 0 0.175
0 0.025 0.175
0.025 0.025 0.175
0.05 0.025 0.175
0.075 0.025 0.175
0.1 0.025 0.175
0 0.05 0.175
0.025 0.05 0.175
0.05 0.05 0.175
0.075 0.05 0.175
0.1 0.05 0.175
0 0.075 0.175
0.025 0.075 0.175
0.05 0.075 0.175
0.075 0.075 0.175
0.1 0.075 0.175
0 0.1 0.175
0.025 0.1 0.175
0.05 0.1 0.175
0.075 0.1 0.175
0.1 0.1 0.175
0 0 0.2
0.025 0 0.2
0.05 0 0.2
0.075 0 0.2
0.1 0 0.2
0 0.025 0.2
0.025 0.025 0.2
0.05 0.025 0.2
0.075 0.025 0.2
0.1 0.025 0.2
0 0.05 0.2
0.025 0.05 0.2
0.05 0.05 0.2
0.075 0.05 0.2
0.1 0.05 0.2
0 0.075 0.2
0.025 0.075 0.2
0.05 0.075 0.2
0.075 0.075 0.2
0.1 0.075 0.2
0 0.1 0.2
0.025 0.1 0.2
0.05 0.1 0.2
0.075 0.1 0.2
0.1 0.1 0.2
0 0 0.225
0.025 0 0.225
0.05 0 0.225
0.075 0 0.225
0.1 0 0.225
0 0.025 0.225
0.025 0.025 0.225
0.05 0.025 0.225
0.075 0.025 0.225
0.1 0.025 0.225
0 0.05 0.225
0.025 0.05 0.225
0.05 0.05 0.225
0.075 0.05 0.225
0.1 0.05 0.225
0 0.075 0.225
0.025 0.075 0.225
0.05 0.075 0.225
0.075 0.075 0.225
0.1 0.075 0.225
0 0.1 0.225
0.025 0.1 0.225
0.05 0.1 0.225
0.075 0.1 0.225
0.1 0.1 0.225
0 0 0.25
0.025 0 0.25
0.05 0 0.25
0.075 0 0.25
0.1 0 0.25
0 0.025 0.25
0.025 0.025 0.25
0.05 0.025 0.25
0.075 0.025 0.25
0.1 0.025 0.25
0 0.05 0.25
0.025 0.05 0.25
0.05 0.05 0.25
0.075 0.05 0.25
0.1 0.05 0.25
0 0.075 0.25
0.025 0.075 0.25
0.05 0.075 0.25
0.075 0.075 0.25
0.1 0.075 0.25
0 0.1 0.25
0.025 0.1 0.25
0.05 0.1 0.25
0.075 0.1 0.25
0.1 0.1 0.25
0 0 0.275
0.025 0 0.275
0.05 0 0.275
0.075 0 0.275
0.1 0 0.275
0 0.025 0.275
0.025 0.025 0.275
0.05 0.025 0.275
0.075 0.025 0.275
0.1 0.025 0.275
0 0.05 0.275
0.025 0.05 0.275
0.05 0.05 0.275
0.075 0.05 0.275
0.1 0.05 0.275
0 0.075 0.275
0.025 0.075 0.275
0.05 0.075 0.275
0.075 0.075 0.275
0.1 0.075 0.275
0 0.1 0.275
0.025 0.1 0.275
0.05 0.1 0.275
0.075 0.1 0.275
0.1 0.1 0.275
0 0 0.3
0.025 0 0.3
0.05 0 0.3
0.075 0 0.3
0.1 0 0.3
0 0.025 0.3
0.025 0.025 0.3
0.05 0.025 0.3
0.075 0.025 0.3
0.1 0.025 0.3
0 0.05 0.3
0.025 0.05 0.3
0.05 0.05 0.3
0.075 0.05 0.3
0.1 0.05 0.3
0 0.075 0.3
0.025 0.075 0.3
0.05 0.075 0.3
0.075 0.075 0.3
0.1 0.075 0.3
0 0.1 0.3
0.025 0.1 0.3
0.05 0.1 0.3
0.075 0.1 0.3
0.1 0.1 0.3
0 0 0.325
0.025 0 0.325
0.05 0 0.325
0.075 0 0.325
0.1 0 0.325
0 0.025 0.325
0.025 0.025 0.325
0.05 0.025 0.325
0.075 0.025 0.325
0.1 0.025 0.325
0 0.05 0.325
0.025 0.05 0.325
0.05 0.05 0.325
0.075 0.05 0.325
0.1 0.05 0.325
0 0.075 0.325
0.025 0.075 0.325
0.05 0.075 0.325
0.075 0.075 0.325
0.1 0.075 0.325
0 0.1 0.325
0.025 0.1 0.325
0.05 0.1 0.325
0.075 0.1 0.325
0.1 0.1 0.325
0 0 0.35
0.025 0 0.35
0.05 0 0.35
0.075 0 0.35
0.1 0 0.35
0 0.025 0.35
0.025 0.025 0.35
0.05 0.025 0.35
0.075 0.025 0.35
0.1 0.025 0.35
0 0.05 0.35
0.025 0.05 0.35
0.05 0.05 0.35
0.075 0.05 0.35
0.1 0.05 0.35
0 0.075 0.35
0.025 0.075 0.35
0.05 0.075 0.35
0.075 0.075 0.35
0.1 0.075 0.35
0 0.1 0.35
0.025 0.1 0.35
0.05 0.1 0.35
0.075 0.1 0.35
0.1 0.1 0.35
0 0 0.375
0.025 0 0.375
0.05 0 0.375
0.075 0 0.375
0.1 0 0.375
0 0.025 0.375
0.025 0.025 0.375
0.05 0.025 0.375
0.075 0.025 0.375
0.1 0.025 0.375
0 0.05 0.375
0.025 0.05 0.375
0.05 0.05 0.375
0.075 0.05 0.375
0.1 0.05 0.375
0 0.075 0.375
0.025 0.075 0.375
0.05 0.075 0.375
0.075 0.075 0.375
0.1 0.075 0.375
0 0.1 0.375
0.025 0.1 0.375
0.05 0.1 0.375
0.075 0.1 0.375
0.1 0.1 0.375
0 0 0.4
0.025 0 0.4
0.05 0 0.4
0.075 0 0.4
0.1 0 0.4
0 0.025 0.4
0.025 0.025 0.4
0.05 0.025 0.4
0.075 0.025 0.4
0.1 0.025 0.4
0 0.05 0.4
0.025 0.05 0.4
0.05 0.05 0.4
0.075 0.05 0.4
0.1 0.05 0.4
0 0.075 0.4
0.025 0.075 0.4
0.05 0.075 0.4
0.075 0.075 0.4
0.1 0.075 0.4
0 0.1 0.4
0.025 0.1 0.4
0.05 0.1 0.4
0.075 0.1 0.4
0.1 0.1 0.4
0 0 0.425
0.025 0 0.425
0.05 0 0.425
0.075 0 0.425
0.1 0 0.425
0 0.025 0.425
0.025 0.025 0.425
0.05 0.025 0.425
0.075 0.025 0.425
0.1 0.025 0.425
0 0.05 0.425
0.025 0.05 0.425
0.05 0.05 0.425
0.075 0.05 0.425
0.1 0.05 0.425
0 0.075 0.425
0.025 0.075 0.425
0.05 0.075 0.425
0.075 0.075 0.425
0.1 0.075 0.425
0 0.1 0.425
0.025 0.1 0.425
0.05 0.1 0.425
0.075 0.1 0.425
0.1 0.1 0.425
0 0 0.45
0.025 0 0.45
0.05 0 0.45
0.075 0 0.45
0.1 0 0.45
0 0.025 0.45
0.025 0.025 0.45
0.05 0.025 0.45
0.075 0.025 0.45
0.1 0.025 0.45
0 0.05 0.45
0.025 0.05 0.45
0.05 0.05 0.45
0.075 0.05 0.45
0.1 0.05 0.45
0 0.075 0.45
0.025 0.075 0.45
0.05 0.075 0.45
0.075 0.075 0.45
0.1 0.075 0.45
0 0.1 0.45
0.025 0.1 0.45
0.05 0.1 0.45
0.075 0.1 0.45
0.1 0.1 0.45
0 0 0.475
0.025 0 0.475
0.05 0 0.475
0.075 0 0.475
0.1 0 0.475
0 0.025 0.475
0.025 0.025 0.475
0.05 0.025 0.475
0.075 0.025 0.475
0.1 0.025 0.475
0 0.05 0.475
0.025 0.05 0.475
0.05 0.05 0.475
0.075 0.05 0.475
0.1 0.05 0.475
0 0.075 0.475
0.025 0.075 0.475
0.05 0.075 0.475
0.075 0.075 0.475
0.1 0.075 0.475
0 0.1 0.475
0.025 0.1 0.475
0.05 0.1 0.475
0.075 0.1 0.475
0.1 0.1 0.475
0 0 0.5
0.025 0 0.5
0.05 0 0.5
0.075 0 0.5
0.1 0 0.5
0 0.025 0.5
0.025 0.025 0.5
0.05 0.025 0.5
0.075 0.025 0.5
0.1 0.025 0.5
0 0.05 0.5
0.025 0.05 0.5
0.05 0.05 0.5
0.075 0.05 0.5
0.1 0.05 0.5
0 0.075 0.5
0.025 0.075 0.5
0.05 0.075 0.5
0.075 0.075 0.5
0.1 0.075 0.5
0 0.1 0.5
0.025 0.1 0.5
0.05 0.1 0.5
0.075 0.1 0.5
0.1 0.1 0.5
0 0 0.525
0.025 0 0.525
0.05 0 0.525
0.075 0 0.525
0.1 0 0.525
0 0.025 0.525
0.025 0.025 0.525
0.05 0.025 0.525
0.075 0.025 0.525
0.1 0.025 0.525
0 0.05 0.525
0.025 0.05 0.525
0.05 0.05 0.525
0.075 0.05 0.525
0.1 0.05 0.525
0 0.075 0.525
0.025 0.075 0.525
0.05 0.075 0.525
0.075 0.075 0.525
0.1 0.075 0.525
0 0.1 0.525
0.025 0.1 0.525
0.05 0.1 0.525
0.075 0.1 0.525
0.1 0.1 0.525
0 0 0.55
0.025 0 0.55
0.05 0 0.55
0.075 0 0.55
0.1 0 0.55
0 0.025 0.55
0.025 0.025 0.55
0.05 0.025 0.55
0.075 0.025 0.55
0.1 0.025 0.55
0 0.05 0.55
0.025 0.05 0.55
0.05 0.05 0.55
0.075 0.05 0.55
0.1 0.05 0.55
0 0.075 0.55
0.025 0.075 0.55
0.05 0.075 0.55
0.075 0.075 0.55
0.1 0.075 0.55
0 0.1 0.55
0.025 0.1 0.55
0.05 0.1 0.55
0.075 0.1 0.55
0.1 0.1 0.55
0 0 0.575
0.025 0 0.575
0.05 0 0.575
0.075 0 0.575
0.1 0 0.575
0 0.025 0.575
0.025 0.025 0.575
0.05 0.025 0.575
0.075 0.025 0.575
0.1 0.025 0.575
0 0.05 0.575
0.025 0.05 0.575
0.05 0.05 0.575
0.075 0.05 0.575
0.1 0.05 0.575
0 0.075 0.575
0.025 0.075 0.575
0.05 0.075 0.575
0.075 0.075 0.575
0.1 0.075 0.575
0 0.1 0.575
0.025 0.1 0.575
0.05 0.1 0.575
0.075 0.1 0.575
0.1 0.1 0.575
0 0 0.6
0.025 0 0.6
0.05 0 0.6
0.075 0 0.6
0.1 0 0.6
0 0.025 0.6
0.025 0.025 0.6
0.05 0.025 0.6
0.075 0.025 0.6
0.1 0.025 0.6
0 0.05 0.6
0.025 0.05 0.6
0.05 0.05 0.6
0.075 0.05 0.6
0.1 0.05 0.6
0 0.075 0.6
0.025 0.075 0.6
0.05 0.075 0.6
0.075 0.075 0.6
0.1 0.075 0.6
0 0.1 0.6
0.025 0.1 0.6
0.05 0.1 0.6
0.075 0.1 0.6
0.1 0.1 0.6
0 0 0.625
0.025 0 0.625
0.05 0 0.625
0.075 0 0.625
0.1 0 0.625
0 0.025 0.625
0.025 0.025 0.625
0.05 0.025 0.625
0.075 0.025 0.625
0.1 0.025 0.625
0 0.05 0.625
0.025 0.05 0.625
0.05 0.05 0.625
0.075 0.05 0.625
0.1 0.05 0.625
0 0.075 0.625
0.025 0.075 0.625
0.05 0.075 0.625
0.075 0.075 0.625
0.1 0.075 0.625
0 0.1 0.625
0.025 0.1 0.625
0.05 0.1 0.625
0.075 0.1 0.625
0.1 0.1 0.625
0 0 0.65
0.025 0 0.65
0.05 0 0.65
0.075 0 0.65
0.1 0 0.65
0 0.025 0.65
0.025 0.025 0.65
0.05 0.025 0.65
0.075 0.025 0.65
0.1 0.025 0.65
0 0.05 0.65
0.025 0.05 0.65
0.05 0.05 0.65
0.075 0.05 0.65
0.1 0.05 0.65
0 0.075 0.65
0.025 0.075 0.65
0.05 0.075 0.65
0.075 0.075 0.65
0.1 0.075 0.65
0 0.1 0.65
0.025 0.1 0.65
0.05 0.1 0.65
0.075 0.1 0.65
0.1 0.1 0.65
0 0 0.675
0.025 0 0.675
0.05 0 0.675
0.075 0 0.675
0.1 0 0.675
[...]
<PointData Vectors="Displacement">
<DataArray type="Float32" Name="Displacement" NumberOfComponents="3" format="ascii">
0 0 0
0 0 0
0 0 0
0 0 0
0 0 0
0 0 0
0 0 0
0 0 0
0 0 0
0 0 0
0 0 0
0 0 0
0 0 0
0 0 0
0 0 0
0 0 0
0 0 0
0 0 0
0 0 0
0 0 0
0 0 0
0 0 0
0 0 0
0 0 0
0 0 0
-3.38149e-10 0.00113735 -9.87185e-10
-1.28286e-10 0.00113735 -9.92631e-10
-2.88309e-11 0.00113735 -9.97057e-10
9.55823e-11 0.00113735 -9.84002e-10
2.97167e-10 0.00113735 -1.00347e-09
-3.13717e-10 0.00113735 -9.82814e-10
-1.36396e-10 0.00113735 -9.94603e-10
-2.42614e-11 0.00113735 -9.85645e-10
9.00607e-11 0.00113735 -9.82506e-10
2.93128e-10 0.00113735 -9.76356e-10
-3.3721e-10 0.00113735 -9.92447e-10
-1.39154e-10 0.00113735 -9.82897e-10
-2.49315e-11 0.00113735 -9.9188e-10
9.32152e-11 0.00113735 -9.72659e-10
2.83037e-10 0.00113735 -9.81328e-10
-2.92064e-10 0.00113735 -9.76928e-10
-1.31615e-10 0.00113735 -9.89938e-10
-1.84859e-11 0.00113735 -9.70873e-10
7.99411e-11 0.00113735 -9.85881e-10
2.42935e-10 0.00113735 -9.6899e-10
-2.70277e-10 0.00113735 -9.77118e-10
-1.09233e-10 0.00113735 -9.66595e-10
-1.65812e-11 0.00113735 -9.71367e-10
7.22458e-11 0.00113735 -9.57882e-10
2.325e-10 0.00113735 -9.62908e-10
-3.70013e-10 0.0022754 -1.99735e-09
-2.25224e-10 0.0022754 -1.98599e-09
-5.93148e-11 0.0022754 -1.95861e-09
1.09495e-10 0.0022754 -1.98424e-09
3.68023e-10 0.0022754 -2.00837e-09
-4.29882e-10 0.0022754 -1.98064e-09
-2.12971e-10 0.0022754 -1.97823e-09
-4.98573e-11 0.0022754 -1.96843e-09
1.25149e-10 0.0022754 -1.95416e-09
3.36447e-10 0.0022754 -1.97501e-09
-4.07657e-10 0.0022754 -1.98323e-09
-2.13597e-10 0.0022754 -1.95951e-09
-4.92893e-11 0.0022754 -1.978e-09
1.11078e-10 0.0022754 -1.95186e-09
3.14627e-10 0.0022754 -1.95688e-09
-3.83823e-10 0.0022754 -1.98218e-09
-2.08182e-10 0.0022754 -1.96986e-09
-2.28405e-11 0.0022754 -1.95154e-09
9.58823e-11 0.0022754 -1.95704e-09
2.90296e-10 0.0022754 -1.98098e-09
-3.40833e-10 0.0022754 -1.96888e-09
-1.91568e-10 0.0022754 -2.00095e-09
-4.44598e-11 0.0022754 -1.96278e-09
1.12129e-10 0.0022754 -1.97329e-09
2.5823e-10 0.0022754 -1.97626e-09
-5.20072e-10 0.00341481 -2.90742e-09
-2.55656e-10 0.00341481 -2.92722e-09
-6.29723e-11 0.00341481 -2.84149e-09
5.67859e-11 0.00341481 -2.85266e-09
3.7526e-10 0.00341481 -2.83121e-09
-4.76019e-10 0.00341481 -2.8956e-09
-2.59459e-10 0.00341481 -2.87966e-09
-7.07556e-11 0.00341481 -2.88664e-09
7.15183e-11 0.00341481 -2.85508e-09
3.03844e-10 0.00341481 -2.87642e-09
-4.35387e-10 0.00341481 -2.8857e-09
-2.52925e-10 0.00341481 -2.8668e-09
-7.40974e-11 0.00341481 -2.86533e-09
1.10563e-10 0.00341481 -2.88647e-09
2.83006e-10 0.00341481 -2.88166e-09
-3.74425e-10 0.00341481 -2.9003e-09
-2.39602e-10 0.00341481 -2.87669e-09
-8.17615e-11 0.00341481 -2.9007e-09
7.59084e-11 0.00341481 -2.88946e-09
2.53856e-10 0.00341481 -2.89913e-09
-4.38666e-10 0.00341481 -2.8819e-09
-1.82278e-10 0.00341481 -2.88403e-09
-4.00757e-11 0.00341481 -2.96335e-09
8.4566e-11 0.00341481 -2.93063e-09
2.43979e-10 0.00341481 -2.91418e-09
-5.22154e-10 0.00455621 -3.63758e-09
-2.68714e-10 0.00455621 -3.64942e-09
-5.32467e-11 0.0045562 -3.74418e-09
6.3225e-12 0.0045562 -3.70762e-09
2.43177e-10 0.0045562 -3.65195e-09
-4.9745e-10 0.00455621 -3.70262e-09
-2.90972e-10 0.00455621 -3.7229e-09
-8.47344e-11 0.00455621 -3.71252e-09
4.00917e-11 0.0045562 -3.66793e-09
2.43397e-10 0.0045562 -3.6663e-09
-4.65206e-10 0.00455621 -3.72074e-09
-2.86899e-10 0.0045562 -3.72472e-09
-9.41447e-11 0.00455621 -3.71226e-09
4.93862e-11 0.0045562 -3.67159e-09
2.54887e-10 0.0045562 -3.71453e-09
-4.35334e-10 0.00455621 -3.71356e-09
-2.69033e-10 0.00455621 -3.69399e-09
-1.17728e-10 0.00455621 -3.7334e-09
4.90166e-11 0.00455621 -3.71895e-09
2.25232e-10 0.0045562 -3.70493e-09
-3.914e-10 0.00455621 -3.69859e-09
-2.88551e-10 0.00455621 -3.68005e-09
-1.05878e-10 0.0045562 -3.741e-09
5.32424e-11 0.00455621 -3.67995e-09
1.68086e-10 0.0045562 -3.73771e-09
-4.52574e-10 0.00570016 -4.28093e-09
-3.33457e-10 0.00570016 -4.26147e-09
-1.70502e-10 0.00570016 -4.35178e-09
-4.56746e-12 0.00570016 -4.37787e-09
1.2449e-10 0.00570016 -4.3239e-09
-4.85438e-10 0.00570016 -4.32431e-09
-3.21339e-10 0.00570016 -4.32983e-09
-1.00384e-10 0.00570016 -4.37334e-09
8.45057e-12 0.00570016 -4.33319e-09
9.30158e-11 0.00570016 -4.34658e-09
-5.1211e-10 0.00570016 -4.39684e-09
-3.3063e-10 0.00570016 -4.36094e-09
-9.1574e-11 0.00570016 -4.34968e-09
-7.09721e-12 0.00570016 -4.37664e-09
2.22445e-10 0.00570016 -4.27507e-09
-3.89385e-10 0.00570016 -4.33814e-09
-3.13271e-10 0.00570016 -4.36958e-09
-1.41986e-10 0.00570016 -4.32492e-09
-2.3952e-12 0.00570016 -4.32131e-09
2.21542e-10 0.00570016 -4.36128e-09
-5.48176e-10 0.00570016 -4.3681e-09
-2.94781e-10 0.00570016 -4.3659e-09
-1.24095e-10 0.00570016 -4.39128e-09
-3.41461e-11 0.00570016 -4.36181e-09
2.35197e-10 0.00570016 -4.25742e-09
-3.87636e-10 0.00684724 -4.82456e-09
-4.27878e-10 0.00684724 -4.84943e-09
-1.09442e-10 0.00684724 -4.82179e-09
-1.57608e-10 0.00684723 -4.88828e-09
1.37136e-10 0.00684724 -4.7579e-09
-5.38039e-10 0.00684724 -4.7916e-09
-3.61673e-10 0.00684724 -4.83903e-09
-1.4436e-10 0.00684724 -4.82379e-09
-4.0836e-11 0.00684724 -4.84004e-09
9.784e-11 0.00684723 -4.80991e-09
-5.67304e-10 0.00684723 -4.73977e-09
-3.59929e-10 0.00684723 -4.82043e-09
-1.62639e-10 0.00684723 -4.89014e-09
6.25455e-12 0.00684723 -4.81574e-09
4.26112e-11 0.00684723 -4.82365e-09
-5.1709e-10 0.00684723 -4.85055e-09
-3.56072e-10 0.00684723 -4.85444e-09
-1.8745e-10 0.00684723 -4.77059e-09
-4.04916e-11 0.00684723 -4.84637e-09
9.37258e-11 0.00684723 -4.78576e-09
-4.79534e-10 0.00684723 -4.74811e-09
-3.16367e-10 0.00684723 -4.88576e-09
-2.09431e-10 0.00684723 -4.80762e-09
-6.66878e-11 0.00684723 -4.71438e-09
1.00222e-10 0.00684723 -4.86474e-09
-7.3377e-10 0.00799797 -5.10692e-09
-3.8617e-10 0.00799797 -5.06457e-09
-2.09251e-10 0.00799797 -5.0878e-09
-3.22542e-12 0.00799797 -5.26481e-09
-8.9651e-11 0.00799797 -5.1804e-09
-5.88703e-10 0.00799797 -5.04306e-09
-4.46484e-10 0.00799797 -5.13352e-09
-2.20312e-10 0.00799797 -5.18483e-09
-8.38145e-11 0.00799797 -5.1128e-09
-2.19975e-11 0.00799797 -5.16083e-09
-5.11508e-10 0.00799797 -5.03098e-09
-4.56535e-10 0.00799797 -5.0446e-09
-2.5758e-10 0.00799797 -5.06532e-09
-1.09029e-10 0.00799797 -5.11866e-09
-6.55291e-11 0.00799797 -5.21502e-09
-5.07375e-10 0.00799797 -5.01878e-09
-3.73558e-10 0.00799797 -5.1345e-09
-2.86838e-10 0.00799797 -5.18614e-09
-1.41767e-10 0.00799797 -5.14412e-09
-3.85407e-11 0.00799797 -5.11707e-09
-4.87578e-10 0.00799797 -5.06681e-09
-3.4602e-10 0.00799797 -5.13788e-09
-2.09127e-10 0.00799797 -5.1933e-09
-1.93572e-10 0.00799797 -5.05374e-09
-1.08275e-10 0.00799797 -5.11419e-09
-5.18339e-10 0.00915295 -5.1649e-09
-5.42016e-10 0.00915295 -5.12187e-09
-3.08812e-10 0.00915295 -5.21718e-09
-3.14447e-10 0.00915295 -5.30139e-09
7.71864e-11 0.00915295 -5.33549e-09
-6.65652e-10 0.00915295 -5.19079e-09
-4.96004e-10 0.00915295 -5.14124e-09
-3.55029e-10 0.00915295 -5.15944e-09
-2.92775e-10 0.00915295 -5.26313e-09
-2.25169e-11 0.00915295 -5.236e-09
-5.68565e-10 0.00915295 -5.15922e-09
-5.05898e-10 0.00915295 -5.19455e-09
-3.61113e-10 0.00915295 -5.20335e-09
-3.75563e-10 0.00915295 -5.26901e-09
4.79821e-11 0.00915295 -5.26795e-09
-5.25747e-10 0.00915295 -5.18429e-09
-5.05001e-10 0.00915295 -5.18041e-09
-3.41036e-10 0.00915295 -5.26292e-09
-3.23851e-10 0.00915295 -5.27111e-09
-1.43847e-10 0.00915294 -5.25478e-09
-4.16368e-10 0.00915295 -5.25344e-09
-5.93087e-10 0.00915295 -5.40154e-09
-3.46916e-10 0.00915294 -5.40329e-09
-3.07105e-10 0.00915295 -5.2886e-09
-1.46485e-10 0.00915294 -5.21209e-09
-7.45203e-10 0.0103127 -5.17707e-09
-5.48637e-10 0.0103127 -5.29425e-09
-4.69977e-10 0.0103127 -5.30256e-09
-4.45617e-10 0.0103127 -5.26458e-09
-1.90774e-10 0.0103127 -5.32375e-09
-5.52989e-10 0.0103127 -5.24156e-09
-6.05909e-10 0.0103127 -5.23144e-09
-5.54925e-10 0.0103127 -5.29436e-09
-4.04559e-10 0.0103127 -5.2731e-09
-2.57873e-10 0.0103127 -5.3651e-09
-5.43213e-10 0.0103127 -5.22156e-09
-6.57009e-10 0.0103127 -5.19456e-09
-5.39377e-10 0.0103127 -5.30708e-09
-4.42992e-10 0.0103127 -5.33278e-09
-2.69167e-10 0.0103127 -5.22407e-09
-6.52142e-10 0.0103127 -5.33013e-09
-6.03257e-10 0.0103127 -5.27916e-09
-4.95356e-10 0.0103127 -5.27607e-09
-3.80867e-10 0.0103127 -5.22963e-09
-2.44622e-10 0.0103127 -5.21817e-09
-7.79938e-10 0.0103127 -5.47828e-09
-6.26168e-10 0.0103127 -5.24518e-09
-3.63985e-10 0.0103127 -5.24573e-09
-3.59863e-10 0.0103127 -5.1995e-09
-5.01238e-10 0.0103127 -5.33803e-09
-6.73408e-10 0.011478 -4.95893e-09
-7.50285e-10 0.011478 -5.06803e-09
-5.99787e-10 0.011478 -5.32397e-09
-4.76338e-10 0.011478 -5.17895e-09
-3.92099e-10 0.011478 -5.10156e-09
-8.59705e-10 0.011478 -5.17403e-09
-7.50035e-10 0.0114779 -5.19542e-09
-6.29004e-10 0.0114779 -5.13069e-09
-6.21302e-10 0.0114779 -5.17509e-09
-2.76091e-10 0.0114779 -5.19935e-09
-9.25981e-10 0.0114779 -5.22046e-09
-7.28618e-10 0.011478 -5.14493e-09
-7.80614e-10 0.0114779 -5.15514e-09
-6.29281e-10 0.0114779 -5.08671e-09
-4.55401e-10 0.0114779 -5.17268e-09
-9.05254e-10 0.011478 -5.19641e-09
-8.18163e-10 0.0114779 -5.17135e-09
-6.66669e-10 0.0114779 -5.16622e-09
-6.04544e-10 0.0114779 -5.27384e-09
-4.59053e-10 0.0114779 -5.1279e-09
-7.86574e-10 0.0114779 -5.09704e-09
-7.5227e-10 0.0114779 -5.29141e-09
-6.37638e-10 0.0114779 -5.16103e-09
-7.25765e-10 0.0114779 -5.20702e-09
-4.3717e-10 0.0114779 -5.25187e-09
-7.42307e-10 0.0126491 -5.0045e-09
-1.05614e-09 0.0126491 -5.03275e-09
-8.59411e-10 0.0126491 -4.85973e-09
-8.56387e-10 0.0126491 -4.89092e-09
-5.41429e-10 0.0126491 -4.78065e-09
-1.00515e-09 0.0126491 -4.95159e-09
-9.76339e-10 0.0126491 -4.95671e-09
-9.18044e-10 0.0126491 -5.06821e-09
-8.37915e-10 0.0126491 -4.9538e-09
-7.20845e-10 0.0126491 -4.93766e-09
-1.05213e-09 0.0126491 -4.95476e-09
-9.30013e-10 0.0126491 -5.0369e-09
-9.16103e-10 0.0126491 -4.96777e-09
-9.86123e-10 0.0126491 -5.00377e-09
-6.77223e-10 0.0126491 -4.91618e-09
-1.20017e-09 0.0126491 -4.93249e-09
-1.0202e-09 0.0126491 -5.03402e-09
-1.01663e-09 0.0126491 -5.07432e-09
-7.93424e-10 0.0126491 -4.93523e-09
-6.71921e-10 0.0126491 -4.9318e-09
-9.78851e-10 0.0126491 -4.99299e-09
-1.22192e-09 0.0126491 -4.83825e-09
-1.02447e-09 0.0126491 -5.09184e-09
-5.34107e-10 0.0126491 -4.81106e-09
-6.47539e-10 0.0126491 -4.76635e-09
-1.12225e-09 0.0138268 -4.68546e-09
-1.26283e-09 0.0138268 -4.71968e-09
-1.0529e-09 0.0138268 -4.94621e-09
-1.18006e-09 0.0138268 -4.9398e-09
-1.14066e-09 0.0138268 -4.80017e-09
-1.19133e-09 0.0138268 -4.65844e-09
-1.23859e-09 0.0138268 -4.74273e-09
-1.23392e-09 0.0138268 -4.71373e-09
-1.25098e-09 0.0138268 -4.84591e-09
-1.16511e-09 0.0138268 -4.8247e-09
-1.11773e-09 0.0138268 -4.65049e-09
-1.30361e-09 0.0138268 -4.72278e-09
-1.21521e-09 0.0138268 -4.97133e-09
-1.27557e-09 0.0138268 -4.7309e-09
-1.08174e-09 0.0138268 -4.65684e-09
-1.21584e-09 0.0138268 -4.75032e-09
-1.39361e-09 0.0138268 -4.69845e-09
-1.13969e-09 0.0138268 -4.59369e-09
-1.15854e-09 0.0138268 -4.76136e-09
-1.05698e-09 0.0138268 -4.61896e-09
-1.51256e-09 0.0138268 -4.6975e-09
-1.36217e-09 0.0138268 -4.72474e-09
-1.23122e-09 0.0138268 -4.79324e-09
-1.10075e-09 0.0138268 -4.52382e-09
-1.16137e-09 0.0138268 -4.64865e-09
-2.01584e-09 0.0150113 -4.53018e-09
-1.46812e-09 0.0150113 -4.52506e-09
-1.508e-09 0.0150113 -4.65993e-09
-1.66841e-09 0.0150113 -4.68649e-09
-1.30845e-09 0.0150113 -4.68216e-09
-1.35774e-09 0.0150113 -4.3695e-09
-1.57346e-09 0.0150113 -4.47485e-09
-1.47433e-09 0.0150113 -4.72043e-09
-1.4743e-09 0.0150113 -4.60095e-09
-1.59176e-09 0.0150113 -4.61825e-09
-1.65317e-09 0.0150113 -4.4727e-09
-1.54697e-09 0.0150113 -4.47088e-09
-1.46985e-09 0.0150113 -4.42425e-09
-1.35345e-09 0.0150113 -4.48316e-09
-1.6756e-09 0.0150113 -4.4848e-09
-1.77743e-09 0.0150113 -4.45709e-09
-1.55181e-09 0.0150113 -4.4106e-09
-1.44928e-09 0.0150113 -4.38329e-09
-1.42567e-09 0.0150113 -4.36575e-09
-1.28863e-09 0.0150113 -4.49377e-09
-1.89338e-09 0.0150113 -4.20058e-09
-1.56554e-09 0.0150113 -4.50445e-09
-1.48917e-09 0.0150113 -4.21606e-09
-1.33793e-09 0.0150113 -4.21062e-09
-1.01027e-09 0.0150113 -4.38237e-09
-1.53229e-09 0.0162032 -4.15064e-09
-1.70688e-09 0.0162032 -4.28807e-09
-1.8191e-09 0.0162032 -4.28809e-09
-1.91914e-09 0.0162031 -4.32607e-09
-2.05757e-09 0.0162032 -4.34808e-09
-1.57509e-09 0.0162032 -4.19992e-09
-1.80824e-09 0.0162032 -4.21606e-09
-1.84329e-09 0.0162032 -4.22575e-09
-1.88787e-09 0.0162031 -4.40832e-09
-1.87975e-09 0.0162031 -4.32255e-09
-1.92047e-09 0.0162032 -4.19718e-09
-1.82973e-09 0.0162032 -4.17485e-09
-1.70126e-09 0.0162031 -4.21556e-09
-1.81337e-09 0.0162031 -4.30284e-09
-1.67445e-09 0.0162031 -4.3557e-09
-2.1775e-09 0.0162032 -3.92735e-09
-1.85387e-09 0.0162031 -4.15924e-09
-1.5666e-09 0.0162031 -3.94939e-09
-1.79865e-09 0.0162031 -4.20961e-09
-1.54894e-09 0.0162031 -4.07519e-09
-2.11243e-09 0.0162032 -3.83025e-09
-1.8874e-09 0.0162031 -3.62863e-09
-1.75623e-09 0.0162031 -4.22296e-09
-1.62724e-09 0.0162031 -3.88661e-09
-1.89941e-09 0.0162031 -3.81612e-09
-2.08359e-09 0.0174027 -3.84079e-09
-2.16737e-09 0.0174027 -4.01015e-09
-2.20944e-09 0.0174027 -4.13069e-09
-2.18672e-09 0.0174027 -4.25092e-09
-1.92599e-09 0.0174027 -4.19474e-09
-2.17478e-09 0.0174027 -4.00501e-09
-2.11822e-09 0.0174027 -3.89079e-09
-2.14824e-09 0.0174027 -4.13818e-09
-2.19116e-09 0.0174027 -4.25637e-09
-2.07552e-09 0.0174027 -4.18599e-09
-2.21173e-09 0.0174027 -3.80229e-09
-2.16568e-09 0.0174027 -3.90916e-09
-2.04816e-09 0.0174027 -4.00341e-09
-2.07924e-09 0.0174027 -4.10497e-09
-2.0799e-09 0.0174027 -4.34228e-09
-2.17233e-09 0.0174027 -3.82265e-09
-2.24925e-09 0.0174027 -3.61396e-09
-2.03402e-09 0.0174027 -3.94211e-09
-1.95641e-09 0.0174027 -4.13039e-09
-2.01302e-09 0.0174027 -4.0438e-09
-1.83202e-09 0.0174027 -3.65573e-09
-2.32228e-09 0.0174027 -3.81447e-09
-2.01667e-09 0.0174027 -3.37946e-09
-2.03557e-09 0.0174027 -4.068e-09
-1.6689e-09 0.0174027 -3.7341e-09
-2.7885e-09 0.0186103 -3.80647e-09
-2.54335e-09 0.0186103 -3.69352e-09
-2.50242e-09 0.0186103 -3.79672e-09
-2.38176e-09 0.0186103 -4.20644e-09
-2.38343e-09 0.0186103 -3.93184e-09
-2.75566e-09 0.0186103 -3.69334e-09
-2.50275e-09 0.0186103 -3.83596e-09
-2.40943e-09 0.0186103 -3.77182e-09
-2.47846e-09 0.0186103 -4.12311e-09
-2.44021e-09 0.0186103 -3.97823e-09
-2.54636e-09 0.0186103 -3.72212e-09
-2.55516e-09 0.0186103 -3.63167e-09
-2.36862e-09 0.0186103 -3.81194e-09
-2.44202e-09 0.0186103 -3.87688e-09
-2.38687e-09 0.0186103 -3.94135e-09
-2.28359e-09 0.0186103 -3.80908e-09
-2.63368e-09 0.0186103 -3.84052e-09
-2.36839e-09 0.0186103 -3.60473e-09
-2.44473e-09 0.0186103 -3.84372e-09
-2.01143e-09 0.0186103 -3.87462e-09
-2.38722e-09 0.0186103 -3.88449e-09
-2.49515e-09 0.0186103 -3.57292e-09
-2.62012e-09 0.0186103 -4.18152e-09
-2.12935e-09 0.0186103 -3.67542e-09
-2.05831e-09 0.0186103 -4.02776e-09
-2.87416e-09 0.0198264 -3.07068e-09
-2.86087e-09 0.0198263 -3.5036e-09
-2.69003e-09 0.0198264 -3.48768e-09
-2.83656e-09 0.0198263 -3.83791e-09
-2.80204e-09 0.0198263 -3.8165e-09
-2.58593e-09 0.0198263 -3.4672e-09
-2.8733e-09 0.0198263 -3.40047e-09
-2.82445e-09 0.0198263 -3.63344e-09
-2.88437e-09 0.0198263 -3.71543e-09
-2.82829e-09 0.0198263 -3.71599e-09
-2.75636e-09 0.0198264 -3.57665e-09
-2.84767e-09 0.0198263 -3.6864e-09
-2.76241e-09 0.0198263 -3.62173e-09
-2.82928e-09 0.0198263 -3.59455e-09
-2.8869e-09 0.0198263 -3.62076e-09
-2.91213e-09 0.0198263 -3.61783e-09
-2.91169e-09 0.0198263 -3.70796e-09
-2.73953e-09 0.0198263 -3.6007e-09
-2.64334e-09 0.0198263 -3.73092e-09
-2.98065e-09 0.0198263 -3.58082e-09
-2.62402e-09 0.0198263 -3.72224e-09
-3.05255e-09 0.0198263 -3.40428e-09
-2.57074e-09 0.0198263 -3.57373e-09
-2.55914e-09 0.0198263 -3.62406e-09
-2.99501e-09 0.0198263 -3.72376e-09
-3.39907e-09 0.0210512 -3.11058e-09
-3.07117e-09 0.0210512 -3.1022e-09
-3.04326e-09 0.0210512 -3.25439e-09
-3.26187e-09 0.0210512 -3.32595e-09
-3.01889e-09 0.0210512 -3.59143e-09
-3.0748e-09 0.0210512 -3.47906e-09
-3.24909e-09 0.0210512 -3.44965e-09
-3.05529e-09 0.0210512 -3.34459e-09
-3.21022e-09 0.0210512 -3.42612e-09
-2.80481e-09 0.0210512 -3.60129e-09
-3.19081e-09 0.0210512 -3.20169e-09
-3.19739e-09 0.0210512 -3.47556e-09
-3.14915e-09 0.0210512 -3.62545e-09
-3.13527e-09 0.0210512 -3.47169e-09
-3.27754e-09 0.0210512 -3.4227e-09
-3.45745e-09 0.0210512 -3.43332e-09
-3.27269e-09 0.0210512 -3.38122e-09
-3.07118e-09 0.0210512 -3.37584e-09
-3.09069e-09 0.0210512 -3.61672e-09
-3.15752e-09 0.0210512 -3.48679e-09
-3.57093e-09 0.0210512 -3.36275e-09
-3.15179e-09 0.0210512 -3.37406e-09
-3.20055e-09 0.0210512 -3.3746e-09
-2.92464e-09 0.0210512 -3.58263e-09
-3.47005e-09 0.0210512 -3.53178e-09
-3.69824e-09 0.0222851 -3.41966e-09
-3.35336e-09 0.0222851 -2.85316e-09
-3.55353e-09 0.0222851 -3.3316e-09
-3.2487e-09 0.0222851 -3.37348e-09
-3.10118e-09 0.0222851 -3.29998e-09
-3.68434e-09 0.0222851 -2.85329e-09
-3.51834e-09 0.0222851 -3.2455e-09
-3.23414e-09 0.0222851 -2.96331e-09
-3.33581e-09 0.0222851 -3.2174e-09
-3.32677e-09 0.0222851 -3.3156e-09
-3.63626e-09 0.0222851 -2.99939e-09
-3.41019e-09 0.0222851 -3.08178e-09
-3.42973e-09 0.0222851 -3.09734e-09
-3.34257e-09 0.0222851 -3.32283e-09
-2.99546e-09 0.0222851 -3.37504e-09
-3.4973e-09 0.0222851 -2.98232e-09
-3.59712e-09 0.0222851 -2.95926e-09
-3.4183e-09 0.0222851 -2.92642e-09
-3.36693e-09 0.0222851 -3.09759e-09
-2.96478e-09 0.0222851 -3.219e-09
-4.30788e-09 0.0222851 -2.72005e-09
-3.3718e-09 0.0222851 -3.30749e-09
-3.4342e-09 0.0222851 -2.93488e-09
-3.59475e-09 0.0222851 -3.45855e-09
-3.35403e-09 0.0222851 -3.28622e-09
-4.10736e-09 0.023528 -1.95254e-09
-3.79009e-09 0.023528 -2.55521e-09
-3.29654e-09 0.023528 -2.56253e-09
-3.59797e-09 0.023528 -2.64296e-09
-3.16418e-09 0.023528 -2.93728e-09
-3.85936e-09 0.023528 -2.59584e-09
-3.71599e-09 0.023528 -2.47151e-09
-3.60267e-09 0.023528 -2.68417e-09
-3.50651e-09 0.023528 -2.64018e-09
-3.0708e-09 0.023528 -2.72107e-09
-3.62119e-09 0.023528 -2.49739e-09
-3.7749e-09 0.023528 -2.41059e-09
-3.50428e-09 0.023528 -2.4045e-09
-3.28791e-09 0.023528 -2.70232e-09
-3.37423e-09 0.023528 -2.89522e-09
-3.94088e-09 0.023528 -2.45858e-09
-3.75374e-09 0.023528 -2.73479e-09
-3.62236e-09 0.023528 -2.50714e-09
-3.52268e-09 0.023528 -2.68608e-09
-3.07655e-09 0.023528 -2.91309e-09
-3.58404e-09 0.023528 -2.5953e-09
-3.81679e-09 0.023528 -2.40933e-09
-3.49908e-09 0.023528 -2.72158e-09
-3.53175e-09 0.023528 -2.77082e-09
-3.38345e-09 0.023528 -2.76763e-09
-3.62019e-09 0.0247799 -1.88924e-09
-4.07072e-09 0.0247799 -2.254e-09
-3.19783e-09 0.0247799 -1.73742e-09
-3.75522e-09 0.0247799 -2.11791e-09
-3.15526e-09 0.0247799 -1.99575e-09
-3.80485e-09 0.0247799 -1.88291e-09
-3.87465e-09 0.0247799 -1.94181e-09
-3.45458e-09 0.0247799 -2.11357e-09
-3.41567e-09 0.0247799 -1.96333e-09
-3.32219e-09 0.0247799 -1.8047e-09
-4.27768e-09 0.0247799 -1.93138e-09
-3.75259e-09 0.0247799 -1.92897e-09
-3.63568e-09 0.0247799 -1.85276e-09
-3.4025e-09 0.0247799 -1.89899e-09
-2.97444e-09 0.0247799 -2.13561e-09
-3.82344e-09 0.0247799 -1.84362e-09
-3.83318e-09 0.0247799 -1.81261e-09
-3.54194e-09 0.0247799 -1.86902e-09
-3.55969e-09 0.0247799 -2.08977e-09
-3.01661e-09 0.0247799 -2.00019e-09
-4.38623e-09 0.0247799 -1.9123e-09
-3.84579e-09 0.0247799 -1.75228e-09
-3.65222e-09 0.0247799 -2.12489e-09
-3.22537e-09 0.0247799 -2.03881e-09
-3.4699e-09 0.0247799 -2.19711e-09
-3.79134e-09 0.026041 -1.50396e-09
-3.38514e-09 0.026041 -1.30433e-09
-3.57534e-09 0.026041 -1.77811e-09
-3.13219e-09 0.026041 -1.17761e-09
-3.17867e-09 0.026041 -8.29645e-10
-3.7838e-09 0.026041 -1.26519e-09
-3.42607e-09 0.026041 -1.37956e-09
-3.30911e-09 0.026041 -1.23926e-09
-3.30098e-09 0.026041 -1.0728e-09
-3.06571e-09 0.026041 -1.05577e-09
-3.65022e-09 0.026041 -1.1536e-09
-3.6561e-09 0.026041 -1.20036e-09
-3.28987e-09 0.026041 -9.92495e-10
-3.39288e-09 0.026041 -1.20104e-09
-2.59339e-09 0.026041 -8.7108e-10
-3.90334e-09 0.026041 -1.19493e-09
-3.52939e-09 0.0260409 -8.51814e-10
-3.51767e-09 0.026041 -9.81642e-10
-3.28706e-09 0.026041 -1.05532e-09
-3.39112e-09 0.0260409 -1.31452e-09
-3.40199e-09 0.0260409 -9.31998e-10
-3.49515e-09 0.026041 -1.33444e-09
-3.52299e-09 0.0260409 -6.25185e-10
-3.55687e-09 0.0260409 -9.92166e-10
-3.34302e-09 0.0260409 -9.53886e-10