<?xml version="1.0"?>
<VTKFile type="UnstructuredGrid" version="0.1" byte_order="LittleEndian">
<UnstructuredGrid>
<Piece NumberOfPoints="1025" NumberOfCells="640">
<Points>
<DataArray type="Float32" NumberOfComponents="3" format="ascii">
0 0 0
0.025 0 0
0.05 0 0
0.075 0 0
0.1 0 0
0 0.025 0
0.025 0.025 0
0.05 0.025 0
0.075 0.025 0
0.1 0.025 0
0 0.05 0
0.025 0.05 0
0.05 0.05 0
0.075 0.05 0
0.1 0.05 0
0 0.075 0
0.025 0.075 0
0.05 0.075 0
0.075 0.075 0
0.1 0.075 0
0 0.1 0
0.025 0.1 0
0.05 0.1 0
0.075 0.1 0
0.1 0.1 0
0 0 0.025
0.025 0 0.025
0.05 0 0.025
0.075 0 0.025
0.1 0 0.025
0 0.025 0.025
0.025 0.025 0.025
0.05 0.025 0.025
0.075 0.025 0.025
0.1 0.025 0.025
0 0.05 0.025
0.025 0.05 0.025
0.05 0.05 0.025
0.075 0.05 0.025
0.1 0.05 0.025
0 0.075 0.025
0.025 0.075 0.025
0.05 0.075 0.025
0.075 0.075 0.025
0.1 0.075 0.025
0 0.1 0.025
0.025 0.1 0.025
0.05 0.1 0.025
0.075 0.1 0.025
0.1 0.1 0.025
0 0 0.05
0.025 0 0.05
0.05 0 0.05
0.075 0 0.05
0.1 0 0.05
0 0.025 0.05
0.025 0.025 0.05
0.05 0.025 0.05
0.075 0.025 0.05
0.1 0.025 0.05
0 0.05 0.05
0.025 0.05 0.05
0.05 0.05 0.05
0.075 0.05 0.05
0.1 0.05 0.05
0 0.075 0.05
0.025 0.075 0.05
0.05 0.075 0.05
0.075 0.075 0.05
0.1 0.075 0.05
0 0.1 0.05
0.025 0.1 0.05
0.05 0.1 0.05
0.075 0.1 0.05
0.1 0.1 0.05
0 0 0.075
0.025 0 0.075
0.05 0 0.075
0.075 0 0.075
0.1 0 0.075
0 0.025 0.075
0.025 0.025 0.075
0.05 0.025 0.075
0.075 0.025 0.075
0.1 0.025 0.075
0 0.05 0.075
0.025 0.05 0.075
0.05 0.05 0.075
0.075 0.05 0.075
0.1 0.05 0.075
0 0.075 0.075
0.025 0.075 0.075
0.05 0.075 0.075
0.075 0.075 0.075
0.1 0.075 0.075
0 0.1 0.075
0.025 0.1 0.075
0.05 0.1 0.075
0.075 0.1 0.075
0.1 0.1 0.075
0 0 0.1
0.025 0 0.1
0.05 0 0.1
0.075 0 0.1
0.1 0 0.1
0 0.025 0.1
0.025 0.025 0.1
0.05 0.025 0.1
0.075 0.025 0.1
0.1 0.025 0.1
0 0.05 0.1
0.025 0.05 0.1
0.05 0.05 0.1
0.075 0.05 0.1
0.1 0.05 0.1
0 0.075 0.1
0.025 0.075 0.1
0.05 0.075 0.1
0.075 0.075 0.1
0.1 0.075 0.1
0 0.1 0.1
0.025 0.1 0.1
0.05 0.1 0.1
0.075 0.1 0.1
0.1 0.1 0.1
0 0 0.125
0.025 0 0.125
0.05 0 0.125
0.075 0 0.125
0.1 0 0.125
0 0.025 0.125
0.025 0.025 0.125
0.05 0.025 0.125
0.075 0.025 0.125
0.1 0.025 0.125
0 0.05 0.125
0.025 0.05 0.125
0.05 0.05 0.125
0.075 0.05 0.125
0.1 0.05 0.125
0 0.075 0.125
0.025 0.075 0.125
0.05 0.075 0.125
0.075 0.075 0.125
0.1 0.075 0.125
0 0.1 0.125
0.025 0.1 0.125
0.05 0.1 0.125
0.075 0.1 0.125
0.1 0.1 0.125
0 0 0.15
0.025 0 0.15
0.05 0 0.15
0.075 0 0.15
0.1 0 0.15
0 0.025 0.15
0.025 0.025 0.15
0.05 0.025 0.15
0.075 0.025 0.15
0.1 0.025 0.15
0 0.05 0.15
0.025 0.05 0.15
0.05 0.05 0.15
0.075 0.05 0.15
0.1 0.05 0.15
0 0.075 0.15
0.025 0.075 0.15
0.05 0.075 0.15
0.075 0.075 0.15
0.1 0.075 0.15
0 0.1 0.15
0.025 0.1 0.15
0.05 0.1 0.15
0.075 0.1 0.15
0.1 0.1 0.15
0 0 0.175
0.025 0 0.175
0.05 0 0.175
0.075 0 0.175
0.1 0 0.175
0 0.025 0.175
0.025 0.025 0.175
0.05 0.025 0.175
0.075 0.025 0.175
0.1 0.025 0.175
0 0.05 0.175
0.025 0.05 0.175
0.05 0.05 0.175
0.075 0.05 0.175
0.1 0.05 0.175
0 0.075 0.175
0.025 0.075 0.175
0.05 0.075 0.175
0.075 0.075 0.175
0.1 0.075 0.175
0 0.1 0.175
0.025 0.1 0.175
0.05 0.1 0.175
0.075 0.1 0.175
0.1 0.1 0.175
0 0 0.2
0.025 0 0.2
0.05 0 0.2
0.075 0 0.2
0.1 0 0.2
0 0.025 0.2
0.025 0.025 0.2
0.05 0.025 0.2
0.075 0.025 0.2
0.1 0.025 0.2
0 0.05 0.2
0.025 0.05 0.2
0.05 0.05 0.2
0.075 0.05 0.2
0.1 0.05 0.2
0 0.075 0.2
0.025 0.075 0.2
0.05 0.075 0.2
0.075 0.075 0.2
0.1 0.075 0.2
0 0.1 0.2
0.025 0.1 0.2
0.05 0.1 0.2
0.075 0.1 0.2
0.1 0.1 0.2
0 0 0.225
0.025 0 0.225
0.05 0 0.225
0.075 0 0.225
0.1 0 0.225
0 0.025 0.225
0.025 0.025 0.225
0.05 0.025 0.225
0.075 0.025 0.225
0.1 0.025 0.225
0 0.05 0.225
0.025 0.05 0.225
0.05 0.05 0.225
0.075 0.05 0.225
0.1 0.05 0.225
0 0.075 0.225
0.025 0.075 0.225
0.05 0.075 0.225
0.075 0.075 0.225
0.1 0.075 0.225
0 0.1 0.225
0.025 0.1 0.225
0.05 0.1 0.225
0.075 0.1 0.225
0.1 0.1 0.225
0 0 0.25
0.025 0 0.25
0.05 0 0.25
0.075 0 0.25
0.1 0 0.25
0 0.025 0.25
0.025 0.025 0.25
0.05 0.025 0.25
0.075 0.025 0.25
0.1 0.025 0.25
0 0.05 0.25
0.025 0.05 0.25
0.05 0.05 0.25
0.075 0.05 0.25
0.1 0.05 0.25
0 0.075 0.25
0.025 0.075 0.25
0.05 0.075 0.25
0.075 0.075 0.25
0.1 0.075 0.25
0 0.1 0.25
0.025 0.1 0.25
0.05 0.1 0.25
0.075 0.1 0.25
0.1 0.1 0.25
0 0 0.275
0.025 0 0.275
0.05 0 0.275
0.075 0 0.275
0.1 0 0.275
0 0.025 0.275
0.025 0.025 0.275
0.05 0.025 0.275
0.075 0.025 0.275
0.1 0.025 0.275
0 0.05 0.275
0.025 0.05 0.275
0.05 0.05 0.275
0.075 0.05 0.275
0.1 0.05 0.275
0 0.075 0.275
0.025 0.075 0.275
0.05 0.075 0.275
0.075 0.075 0.275
0.1 0.075 0.275
0 0.1 0.275
0.025 0.1 0.275
0.05 0.1 0.275
0.075 0.1 0.275
0.1 0.1 0.275
0 0 0.3
0.025 0 0.3
0.05 0 0.3
0.075 0 0.3
0.1 0 0.3
0 0.025 0.3
0.025 0.025 0.3
0.05 0.025 0.3
0.075 0.025 0.3
0.1 0.025 0.3
0 0.05 0.3
0.025 0.05 0.3
0.05 0.05 0.3
0.075 0.05 0.3
0.1 0.05 0.3
0 0.075 0.3
0.025 0.075 0.3
0.05 0.075 0.3
0.075 0.075 0.3
0.1 0.075 0.3
0 0.1 0.3
0.025 0.1 0.3
0.05 0.1 0.3
0.075 0.1 0.3
0.1 0.1 0.3
0 0 0.325
0.025 0 0.325
0.05 0 0.325
0.075 0 0.325
0.1 0 0.325
0 0.025 0.325
0.025 0.025 0.325
0.05 0.025 0.325
0.075 0.025 0.325
0.1 0.025 0.325
0 0.05 0.325
0.025 0.05 0.325
0.05 0.05 0.325
0.075 0.05 0.325
0.1 0.05 0.325
0 0.075 0.325
0.025 0.075 0.325
0.05 0.075 0.325
0.075 0.075 0.325
0.1 0.075 0.325
0 0.1 0.325
0.025 0.1 0.325
0.05 0.1 0.325
0.075 0.1 0.325
0.1 0.1 0.325
0 0 0.35
0.025 0 0.35
0.05 0 0.35
0.075 0 0.35
0.1 0 0.35
0 0.025 0.35
0.025 0.025 0.35
0.05 0.025 0.35
0.075 0.025 0.35
0.1 0.025 0.35
0 0.05 0.35
0.025 0.05 0.35
0.05 0.05 0.35
0.075 0.05 0.35
0.1 0.05 0.35
0 0.075 0.35
0.025 0.075 0.35
0.05 0.075 0.35
0.075 0.075 0.35
0.1 0.075 0.35
0 0.1 0.35
0.025 0.1 0.35
0.05 0.1 0.35
0.075 0.1 0.35
0.1 0.1 0.35
0 0 0.375
0.025 0 0.375
0.05 0 0.375
0.075 0 0.375
0.1 0 0.375
0 0.025 0.375
0.025 0.025 0.375
0.05 0.025 0.375
0.075 0.025 0.375
0.1 0.025 0.375
0 0.05 0.375
0.025 0.05 0.375
0.05 0.05 0.375
0.075 0.05 0.375
0.1 0.05 0.375
0 0.075 0.375
0.025 0.075 0.375
0.05 0.075 0.375
0.075 0.075 0.375
0.1 0.075 0.375
0 0.1 0.375
0.025 0.1 0.375
0.05 0.1 0.375
0.075 0.1 0.375
0.1 0.1 0.375
0 0 0.4
0.025 0 0.4
0.05 0 0.4
0.075 0 0.4
0.1 0 0.4
0 0.025 0.4
0.025 0.025 0.4
0.05 0.025 0.4
0.075 0.025 0.4
0.1 0.025 0.4
0 0.05 0.4
0.025 0.05 0.4
0.05 0.05 0.4
0.075 0.05 0.4
0.1 0.05 0.4
0 0.075 0.4
0.025 0.075 0.4
0.05 0.075 0.4
0.075 0.075 0.4
0.1 0.075 0.4
0 0.1 0.4
0.025 0.1 0.4
0.05 0.1 0.4
0.075 0.1 0.4
0.1 0.1 0.4
0 0 0.425
0.025 0 0.425
0.05 0 0.425
0.075 0 0.425
0.1 0 0.425
0 0.025 0.425
0.025 0.025 0.425
0.05 0.025 0.425
0.075 0.025 0.425
0.1 0.025 0.425
0 0.05 0.425
0.025 0.05 0.425
0.05 0.05 0.425
0.075 0.05 0.425
0.1 0.05 0.425
0 0.075 0.425
0.025 0.075 0.425
0.05 0.075 0.425
0.075 0.075 0.425
0.1 0.075 0.425
0 0.1 0.425
0.025 0.1 0.425
0.05 0.1 0.425
0.075 0.1 0.425
0.1 0.1 0.425
0 0 0.45
0.025 0 0.45
0.05 0 0.45
0.075 0 0.45
0.1 0 0.45
0 0.025 0.45
0.025 0.025 0.45
0.05 0.025 0.45
0.075 0.025 0.45
0.1 0.025 0.45
0 0.05 0.45
0.025 0.05 0.45
0.05 0.05 0.45
0.075 0.05 0.45
0.1 0.05 0.45
0 0.075 0.45
0.025 0.075 0.45
0.05 0.075 0.45
0.075 0.075 0.45
0.1 0.075 0.45
0 0.1 0.45
0.025 0.1 0.45
0.05 0.1 0.45
0.075 0.1 0.45
0.1 0.1 0.45
0 0 0.475
0.025 0 0.475
0.05 0 0.475
0.075 0 0.475
0.1 0 0.475
0 0.025 0.475
0.025 0.025 0.475
0.05 0.025 0.475
0.075 0.025 0.475
0.1 0.025 0.475
0 0.05 0.475
0.025 0.05 0.475
0.05 0.05 0.475
0.075 0.05 0.475
0.1 0.05 0.475
0 0.075 0.475
0.025 0.075 0.475
0.05 0.075 0.475
0.075 0.075 0.475
0.1 0.075 0.475
0 0.1 0.475
0.025 0.1 0.475
0.05 0.1 0.475
0.075 0.1 0.475
0.1 0.1 0.475
0 0 0.5
0.025 0 0.5
0.05 0 0.5
0.075 0 0.5
0.1 0 0.5
0 0.025 0.5
0.025 0.025 0.5
0.05 0.025 0.5
0.075 0.025 0.5
0.1 0.025 0.5
0 0.05 0.5
0.025 0.05 0.5
0.05 0.05 0.5
0.075 0.05 0.5
0.1 0.05 0.5
0 0.075 0.5
0.025 0.075 0.5
0.05 0.075 0.5
0.075 0.075 0.5
0.1 0.075 0.5
0 0.1 0.5
0.025 0.1 0.5
0.05 0.1 0.5
0.075 0.1 0.5
0.1 0.1 0.5
0 0 0.525
0.025 0 0.525
0.05 0 0.525
0.075 0 0.525
0.1 0 0.525
0 0.025 0.525
0.025 0.025 0.525
0.05 0.025 0.525
0.075 0.025 0.525
0.1 0.025 0.525
0 0.05 0.525
0.025 0.05 0.525
0.05 0.05 0.525
0.075 0.05 0.525
0.1 0.05 0.525
0 0.075 0.525
0.025 0.075 0.525
0.05 0.075 0.525
0.075 0.075 0.525
0.1 0.075 0.525
0 0.1 0.525
0.025 0.1 0.525
0.05 0.1 0.525
0.075 0.1 0.525
0.1 0.1 0.525
0 0 0.55
0.025 0 0.55
0.05 0 0.55
0.075 0 0.55
0.1 0 0.55
0 0.025 0.55
0.025 0.025 0.55
0.05 0.025 0.55
0.075 0.025 0.55
0.1 0.025 0.55
0 0.05 0.55
0.025 0.05 0.55
0.05 0.05 0.55
0.075 0.05 0.55
0.1 0.05 0.55
0 0.075 0.55
0.025 0.075 0.55
0.05 0.075 0.55
0.075 0.075 0.55
0.1 0.075 0.55
0 0.1 0.55
0.025 0.1 0.55
0.05 0.1 0.55
0.075 0.1 0.55
0.1 0.1 0.55
0 0 0.575
0.025 0 0.575
0.05 0 0.575
0.075 0 0.575
0.1 0 0.575
0 0.025 0.575
0.025 0.025 0.575
0.05 0.025 0.575
0.075 0.025 0.575
0.1 0.025 0.575
0 0.05 0.575
0.025 0.05 0.575
0.05 0.05 0.575
0.075 0.05 0.575
0.1 0.05 0.575
0 0.075 0.575
0.025 0.075 0.575
0.05 0.075 0.575
0.075 0.075 0.575
0.1 0.075 0.575
0 0.1 0.575
0.025 0.1 0.575
0.05 0.1 0.575
0.075 0.1 0.575
0.1 0.1 0.575
0 0 0.6
0.025 0 0.6
0.05 0 0.6
0.075 0 0.6
0.1 0 0.6
0 0.025 0.6
0.025 0.025 0.6
0.05 0.025 0.6
0.075 0.025 0.6
0.1 0.025 0.6
0 0.05 0.6
0.025 0.05 0.6
0.05 0.05 0.6
0.075 0.05 0.6
0.1 0.05 0.6
0 0.075 0.6
0.025 0.075 0.6
0.05 0.075 0.6
0.075 0.075 0.6
0.1 0.075 0.6
0 0.1 0.6
0.025 0.1 0.6
0.05 0.1 0.6
0.075 0.1 0.6
0.1 0.1 0.6
0 0 0.625
0.025 0 0.625
0.05 0 0.625
0.075 0 0.625
0.1 0 0.625
0 0.025 0.625
0.025 0.025 0.625
0.05 0.025 0.625
0.075 0.025 0.625
0.1 0.025 0.625
0 0.05 0.625
0.025 0.05 0.625
0.05 0.05 0.625
0.075 0.05 0.625
0.1 0.05 0.625
0 0.075 0.625
0.025 0.075 0.625
0.05 0.075 0.625
0.075 0.075 0.625
0.1 0.075 0.625
0 0.1 0.625
0.025 0.1 0.625
0.05 0.1 0.625
0.075 0.1 0.625
0.1 0.1 0.625
0 0 0.65
0.025 0 0.65
0.05 0 0.65
0.075 0 0.65
0.1 0 0.65
0 0.025 0.65
0.025 0.025 0.65
0.05 0.025 0.65
0.075 0.025 0.65
0.1 0.025 0.65
0 0.05 0.65
0.025 0.05 0.65
0.05 0.05 0.65
0.075 0.05 0.65
0.1 0.05 0.65
0 0.075 0.65
0.025 0.075 0.65
0.05 0.075 0.65
0.075 0.075 0.65
0.1 0.075 0.65
0 0.1 0.65
0.025 0.1 0.65
0.05 0.1 0.65
0.075 0.1 0.65
0.1 0.1 0.65
0 0 0.675
0.025 0 0.675
0.05 0 0.675
0.075 0 0.675
0.1 0 0.675
[...]
<PointData Vectors="Displacement">
<DataArray type="Float32" Name="Displacement" NumberOfComponents="3" format="ascii">
0 0 0
0 0 0
0 0 0
0 0 0
0 0 0
0 0 0
0 0 0
0 0 0
0 0 0
0 0 0
0 0 0
0 0 0
0 0 0
0 0 0
0 0 0
0 0 0
0 0 0
0 0 0
0 0 0
0 0 0
0 0 0
0 0 0
0 0 0
0 0 0
0 0 0
-6.29127e-10 0.00120801 -1.74099e-09
-3.09889e-10 0.00120801 -1.74764e-09
-9.98562e-11 0.00120801 -1.747e-09
8.88602e-11 0.00120801 -1.74539e-09
4.23206e-10 0.00120801 -1.75076e-09
-6.55069e-10 0.00120801 -1.75668e-09
-3.10976e-10 0.00120801 -1.74978e-09
-1.02274e-10 0.00120801 -1.75603e-09
1.04169e-10 0.00120801 -1.7361e-09
4.51073e-10 0.00120801 -1.74903e-09
-6.66494e-10 0.00120801 -1.74755e-09
-3.1779e-10 0.00120801 -1.75763e-09
-1.00763e-10 0.00120801 -1.75446e-09
1.095e-10 0.00120801 -1.74018e-09
4.66746e-10 0.00120801 -1.73835e-09
-6.22288e-10 0.00120801 -1.74095e-09
-3.02722e-10 0.00120801 -1.75205e-09
-9.46315e-11 0.00120801 -1.73145e-09
9.92393e-11 0.00120801 -1.73147e-09
4.1482e-10 0.00120801 -1.72714e-09
-5.9452e-10 0.00120801 -1.73565e-09
-2.83346e-10 0.00120801 -1.71715e-09
-1.01506e-10 0.00120801 -1.72827e-09
8.58174e-11 0.00120801 -1.71618e-09
4.04593e-10 0.00120801 -1.71169e-09
-8.9157e-10 0.00241626 -3.58901e-09
-5.31185e-10 0.00241626 -3.57118e-09
-2.15844e-10 0.00241626 -3.52273e-09
1.22234e-10 0.00241626 -3.58173e-09
5.02307e-10 0.00241626 -3.60182e-09
-9.30787e-10 0.00241626 -3.5778e-09
-5.34858e-10 0.00241626 -3.58268e-09
-2.0115e-10 0.00241626 -3.5472e-09
1.3056e-10 0.00241626 -3.56797e-09
5.09457e-10 0.00241626 -3.56326e-09
-9.28598e-10 0.00241626 -3.5774e-09
-5.21226e-10 0.00241626 -3.55973e-09
-1.95112e-10 0.00241626 -3.59686e-09
1.13694e-10 0.00241626 -3.55708e-09
5.20759e-10 0.00241626 -3.54233e-09
-8.50049e-10 0.00241626 -3.59282e-09
-5.29245e-10 0.00241626 -3.57402e-09
-1.83763e-10 0.00241626 -3.54947e-09
1.06921e-10 0.00241626 -3.55713e-09
4.63539e-10 0.00241626 -3.55456e-09
-8.22089e-10 0.00241626 -3.58862e-09
-4.93329e-10 0.00241626 -3.59547e-09
-2.08756e-10 0.00241626 -3.53336e-09
9.10288e-11 0.00241626 -3.54764e-09
4.30142e-10 0.00241626 -3.56785e-09
-1.12537e-09 0.00362493 -5.4033e-09
-6.4049e-10 0.00362493 -5.41633e-09
-2.92499e-10 0.00362493 -5.36247e-09
-8.76943e-12 0.00362493 -5.32151e-09
4.66503e-10 0.00362493 -5.38397e-09
-1.05115e-09 0.00362493 -5.39024e-09
-6.79895e-10 0.00362493 -5.38285e-09
-2.75052e-10 0.00362493 -5.38154e-09
6.326e-11 0.00362493 -5.36358e-09
4.73758e-10 0.00362493 -5.38993e-09
-1.05802e-09 0.00362493 -5.41951e-09
-6.90057e-10 0.00362493 -5.41799e-09
-2.9319e-10 0.00362493 -5.36957e-09
8.67199e-11 0.00362493 -5.38495e-09
4.59554e-10 0.00362493 -5.40506e-09
-1.00324e-09 0.00362493 -5.44397e-09
-6.43998e-10 0.00362493 -5.44221e-09
-2.95188e-10 0.00362493 -5.40084e-09
5.22714e-11 0.00362493 -5.40637e-09
4.15687e-10 0.00362493 -5.40523e-09
-1.07249e-09 0.00362493 -5.43748e-09
-6.29345e-10 0.00362493 -5.43593e-09
-2.79554e-10 0.00362493 -5.44497e-09
5.53285e-11 0.00362493 -5.46039e-09
3.51367e-10 0.00362493 -5.39635e-09
-1.10209e-09 0.00483409 -7.2388e-09
-8.08463e-10 0.00483409 -7.24703e-09
-3.29135e-10 0.00483409 -7.24673e-09
-2.81553e-11 0.00483409 -7.22352e-09
3.58957e-10 0.00483409 -7.18781e-09
-1.25951e-09 0.00483409 -7.25074e-09
-7.71012e-10 0.00483409 -7.24621e-09
-3.53141e-10 0.00483409 -7.24108e-09
-2.36241e-11 0.00483409 -7.21412e-09
4.52075e-10 0.00483409 -7.22238e-09
-1.20197e-09 0.00483409 -7.27938e-09
-7.86925e-10 0.00483409 -7.27309e-09
-3.5521e-10 0.00483409 -7.25845e-09
-1.07441e-11 0.00483409 -7.20746e-09
4.99028e-10 0.00483409 -7.23973e-09
-1.15403e-09 0.00483409 -7.26748e-09
-7.72094e-10 0.00483409 -7.26636e-09
-3.7188e-10 0.00483409 -7.30338e-09
2.27179e-12 0.00483409 -7.23893e-09
4.00663e-10 0.00483409 -7.26367e-09
-1.16578e-09 0.00483409 -7.31575e-09
-7.30827e-10 0.00483409 -7.27357e-09
-3.60344e-10 0.00483409 -7.34507e-09
2.04546e-11 0.00483409 -7.33398e-09
2.91141e-10 0.00483409 -7.29283e-09
-1.41796e-09 0.00604373 -9.03872e-09
-8.95014e-10 0.00604372 -9.05751e-09
-4.60716e-10 0.00604372 -9.08457e-09
-6.83198e-11 0.00604372 -9.13108e-09
4.91317e-10 0.00604372 -9.04467e-09
-1.32378e-09 0.00604372 -9.06186e-09
-8.63875e-10 0.00604372 -9.07261e-09
-4.18518e-10 0.00604372 -9.09526e-09
-4.66138e-11 0.00604372 -9.00455e-09
3.80053e-10 0.00604372 -9.04091e-09
-1.29788e-09 0.00604372 -9.11627e-09
-8.94028e-10 0.00604372 -9.08233e-09
-3.82584e-10 0.00604372 -9.07468e-09
-5.4143e-11 0.00604372 -9.01269e-09
3.52719e-10 0.00604372 -8.94353e-09
-1.28828e-09 0.00604372 -9.07281e-09
-8.32986e-10 0.00604372 -9.07506e-09
-4.16686e-10 0.00604372 -9.00035e-09
-9.19455e-11 0.00604372 -9.05194e-09
3.66497e-10 0.00604372 -9.03762e-09
-1.09634e-09 0.00604372 -9.06561e-09
-8.01861e-10 0.00604372 -9.08379e-09
-4.7315e-10 0.00604372 -9.04443e-09
-8.04783e-11 0.00604372 -9.0661e-09
3.08644e-10 0.00604372 -9.0094e-09
-1.19341e-09 0.00725374 -1.08419e-08
-1.03106e-09 0.00725374 -1.08915e-08
-4.47325e-10 0.00725374 -1.09253e-08
-7.60769e-11 0.00725374 -1.08596e-08
4.13168e-10 0.00725374 -1.08028e-08
-1.50848e-09 0.00725375 -1.08798e-08
-9.685e-10 0.00725374 -1.08386e-08
-4.51695e-10 0.00725374 -1.08358e-08
-4.16475e-11 0.00725374 -1.08847e-08
3.5073e-10 0.00725374 -1.08215e-08
-1.51562e-09 0.00725374 -1.08168e-08
-8.99579e-10 0.00725374 -1.08641e-08
-4.45866e-10 0.00725374 -1.08642e-08
-4.21714e-11 0.00725374 -1.07959e-08
2.71117e-10 0.00725374 -1.07974e-08
-1.40817e-09 0.00725374 -1.08338e-08
-8.78122e-10 0.00725374 -1.08624e-08
-4.66075e-10 0.00725374 -1.07878e-08
-9.63776e-11 0.00725374 -1.07892e-08
2.53635e-10 0.00725374 -1.07764e-08
-1.36039e-09 0.00725374 -1.07814e-08
-8.77169e-10 0.00725374 -1.08474e-08
-4.27374e-10 0.00725374 -1.0872e-08
-1.90785e-10 0.00725374 -1.07555e-08
3.8408e-10 0.00725374 -1.08083e-08
-1.51365e-09 0.0084641 -1.25444e-08
-1.01826e-09 0.0084641 -1.26277e-08
-5.27532e-10 0.0084641 -1.26098e-08
5.8324e-11 0.0084641 -1.27599e-08
3.43808e-10 0.0084641 -1.25165e-08
-1.55895e-09 0.0084641 -1.25456e-08
-9.76059e-10 0.0084641 -1.26124e-08
-5.20186e-10 0.0084641 -1.25631e-08
-2.5544e-11 0.0084641 -1.25573e-08
4.22337e-10 0.0084641 -1.25445e-08
-1.43637e-09 0.0084641 -1.24688e-08
-9.57871e-10 0.0084641 -1.25419e-08
-4.56727e-10 0.0084641 -1.25563e-08
-9.34031e-11 0.0084641 -1.25139e-08
2.98198e-10 0.0084641 -1.25556e-08
-1.35754e-09 0.0084641 -1.25243e-08
-8.85476e-10 0.0084641 -1.25455e-08
-4.70779e-10 0.0084641 -1.26181e-08
-7.67018e-11 0.0084641 -1.25257e-08
1.70564e-10 0.0084641 -1.25381e-08
-1.3509e-09 0.0084641 -1.24738e-08
-8.39278e-10 0.0084641 -1.24887e-08
-4.47262e-10 0.0084641 -1.26123e-08
-1.1482e-10 0.0084641 -1.24542e-08
1.99435e-10 0.0084641 -1.24567e-08
-1.3061e-09 0.00967486 -1.42638e-08
-1.11124e-09 0.00967486 -1.43423e-08
-3.62088e-10 0.00967486 -1.43342e-08
-1.10859e-10 0.00967486 -1.41428e-08
5.27062e-10 0.00967486 -1.41711e-08
-1.49465e-09 0.00967486 -1.42029e-08
-8.57663e-10 0.00967486 -1.41888e-08
-4.30242e-10 0.00967486 -1.42354e-08
-1.04857e-10 0.00967486 -1.42037e-08
4.66334e-10 0.00967486 -1.41828e-08
-1.35503e-09 0.00967486 -1.42096e-08
-8.74188e-10 0.00967486 -1.42194e-08
-3.84657e-10 0.00967486 -1.4272e-08
-2.08993e-10 0.00967486 -1.42562e-08
3.78397e-10 0.00967486 -1.41608e-08
-1.30326e-09 0.00967486 -1.41743e-08
-8.59003e-10 0.00967486 -1.41881e-08
-4.33003e-10 0.00967486 -1.4179e-08
-1.37747e-10 0.00967486 -1.42011e-08
2.51267e-10 0.00967486 -1.42115e-08
-9.86359e-10 0.00967487 -1.42745e-08
-9.78058e-10 0.00967487 -1.41225e-08
-4.43336e-10 0.00967486 -1.4278e-08
-4.37297e-11 0.00967486 -1.4316e-08
1.55774e-10 0.00967486 -1.41665e-08
-1.25972e-09 0.0108863 -1.58984e-08
-6.99816e-10 0.0108863 -1.60129e-08
-2.50337e-10 0.0108863 -1.59969e-08
1.64422e-11 0.0108863 -1.58877e-08
3.96331e-10 0.0108863 -1.5808e-08
-1.11648e-09 0.0108863 -1.59616e-08
-8.15309e-10 0.0108863 -1.59636e-08
-4.06156e-10 0.0108863 -1.59676e-08
-1.59401e-11 0.0108863 -1.58766e-08
2.4737e-10 0.0108863 -1.5834e-08
-1.15372e-09 0.0108863 -1.59054e-08
-7.51502e-10 0.0108863 -1.59325e-08
-2.96394e-10 0.0108863 -1.59284e-08
-9.21085e-11 0.0108863 -1.58387e-08
3.9027e-10 0.0108863 -1.56507e-08
-1.06971e-09 0.0108863 -1.59837e-08
-7.45973e-10 0.0108863 -1.59136e-08
-3.10551e-10 0.0108863 -1.5841e-08
3.67752e-11 0.0108863 -1.57525e-08
1.33685e-10 0.0108863 -1.57755e-08
-1.18282e-09 0.0108863 -1.59849e-08
-6.22359e-10 0.0108863 -1.5924e-08
-2.73528e-10 0.0108863 -1.58686e-08
-9.00291e-11 0.0108863 -1.58039e-08
2.18382e-10 0.0108863 -1.58272e-08
-1.03792e-09 0.0120987 -1.72605e-08
-6.95291e-10 0.0120987 -1.74177e-08
-2.12371e-10 0.0120987 -1.75109e-08
1.03646e-10 0.0120987 -1.74176e-08
4.77002e-10 0.0120987 -1.73007e-08
-1.18803e-09 0.0120987 -1.74528e-08
-6.28816e-10 0.0120987 -1.74792e-08
-1.70145e-10 0.0120987 -1.74473e-08
1.00335e-10 0.0120987 -1.74047e-08
5.95548e-10 0.0120987 -1.7395e-08
-1.13707e-09 0.0120987 -1.751e-08
-6.23854e-10 0.0120987 -1.73472e-08
-2.32181e-10 0.0120987 -1.73267e-08
1.10735e-10 0.0120987 -1.72266e-08
5.43858e-10 0.0120987 -1.72937e-08
-1.0303e-09 0.0120987 -1.74761e-08
-6.10483e-10 0.0120987 -1.74874e-08
-1.45052e-10 0.0120987 -1.74237e-08
5.59717e-11 0.0120987 -1.73627e-08
4.4211e-10 0.0120987 -1.72528e-08
-1.10983e-09 0.0120987 -1.73918e-08
-6.51168e-10 0.0120987 -1.74555e-08
-3.37953e-11 0.0120987 -1.73889e-08
1.02913e-11 0.0120987 -1.73084e-08
2.93101e-10 0.0120987 -1.72187e-08
-4.56744e-10 0.0133125 -1.85413e-08
-4.46696e-10 0.0133125 -1.85842e-08
6.98588e-11 0.0133125 -1.8646e-08
2.87609e-10 0.0133125 -1.85599e-08
3.20393e-10 0.0133125 -1.81825e-08
-9.26892e-10 0.0133125 -1.84768e-08
-4.04667e-10 0.0133125 -1.86114e-08
-9.70106e-11 0.0133125 -1.85991e-08
2.44722e-10 0.0133125 -1.85748e-08
5.90714e-10 0.0133125 -1.85189e-08
-8.63681e-10 0.0133125 -1.86169e-08
-3.14699e-10 0.0133125 -1.8609e-08
-3.82694e-11 0.0133125 -1.86758e-08
1.95036e-10 0.0133125 -1.8548e-08
7.05393e-10 0.0133125 -1.84934e-08
-8.54788e-10 0.0133125 -1.86978e-08
-4.07311e-10 0.0133125 -1.868e-08
-9.39453e-11 0.0133125 -1.85938e-08
2.8871e-10 0.0133125 -1.85121e-08
4.2061e-10 0.0133125 -1.84673e-08
-9.17459e-10 0.0133125 -1.86421e-08
-4.48093e-10 0.0133125 -1.87508e-08
-3.25684e-11 0.0133125 -1.86655e-08
4.8462e-10 0.0133125 -1.8554e-08
5.02851e-10 0.0133125 -1.83125e-08
4.57758e-11 0.0145283 -1.95191e-08
6.62779e-11 0.0145283 -1.94771e-08
1.49176e-10 0.0145283 -1.93361e-08
4.91902e-10 0.0145283 -1.96654e-08
6.41526e-10 0.0145283 -1.9524e-08
-2.8888e-10 0.0145283 -1.94606e-08
-2.38765e-11 0.0145283 -1.95534e-08
1.90011e-10 0.0145283 -1.9489e-08
3.82073e-10 0.0145283 -1.95422e-08
6.46169e-10 0.0145283 -1.95202e-08
-2.64874e-10 0.0145283 -1.94648e-08
-1.45542e-10 0.0145283 -1.96242e-08
2.83387e-10 0.0145283 -1.95463e-08
3.47112e-10 0.0145283 -1.94546e-08
6.21823e-10 0.0145283 -1.94182e-08
-4.33686e-10 0.0145283 -1.95425e-08
-1.26233e-10 0.0145283 -1.95813e-08
3.37291e-10 0.0145283 -1.94494e-08
4.79857e-10 0.0145283 -1.94036e-08
4.55456e-10 0.0145283 -1.94972e-08
-2.06374e-10 0.0145283 -1.94877e-08
-1.8422e-10 0.0145283 -1.94659e-08
3.76265e-10 0.0145283 -1.94455e-08
4.69848e-10 0.0145283 -1.93299e-08
5.64625e-10 0.0145283 -1.95031e-08
2.05308e-10 0.0157463 -2.01546e-08
4.4554e-10 0.0157463 -2.00622e-08
4.88154e-10 0.0157463 -2.02746e-08
5.4564e-10 0.0157463 -2.04606e-08
1.18526e-09 0.0157463 -2.04175e-08
3.2035e-10 0.0157463 -2.02091e-08
2.75655e-10 0.0157463 -2.03103e-08
5.14263e-10 0.0157463 -2.02958e-08
7.6664e-10 0.0157463 -2.01796e-08
7.81623e-10 0.0157463 -2.03539e-08
-5.81752e-11 0.0157463 -2.02919e-08
3.31863e-10 0.0157463 -2.01531e-08
6.09277e-10 0.0157463 -2.0218e-08
7.6966e-10 0.0157463 -2.01563e-08
6.43352e-10 0.0157463 -2.02039e-08
9.23221e-11 0.0157463 -2.01075e-08
3.46684e-10 0.0157463 -2.02348e-08
6.92411e-10 0.0157463 -1.99985e-08
6.41593e-10 0.0157463 -2.011e-08
8.88905e-10 0.0157463 -2.02413e-08
-3.60189e-10 0.0157463 -2.00686e-08
4.45375e-10 0.0157463 -1.99689e-08
6.91315e-10 0.0157463 -1.9881e-08
7.69593e-10 0.0157463 -1.99663e-08
9.01331e-10 0.0157463 -2.02976e-08
1.20191e-09 0.0169667 -2.07645e-08
9.26132e-10 0.0169667 -2.09999e-08
8.57628e-10 0.0169667 -2.08195e-08
8.75336e-10 0.0169667 -2.0997e-08
5.91444e-10 0.0169667 -2.06212e-08
9.90205e-10 0.0169667 -2.06732e-08
8.55469e-10 0.0169667 -2.07272e-08
9.00447e-10 0.0169667 -2.08067e-08
8.84099e-10 0.0169667 -2.08296e-08
8.17891e-10 0.0169667 -2.0772e-08
6.36799e-10 0.0169667 -2.07323e-08
7.78985e-10 0.0169667 -2.06223e-08
1.04145e-09 0.0169667 -2.04755e-08
9.8684e-10 0.0169667 -2.07386e-08
9.62654e-10 0.0169667 -2.07775e-08
3.79978e-10 0.0169667 -2.0393e-08
8.42104e-10 0.0169667 -2.04006e-08
1.19414e-09 0.0169667 -2.04216e-08
9.84762e-10 0.0169667 -2.06469e-08
7.73971e-10 0.0169667 -2.0603e-08
2.71064e-10 0.0169667 -2.01807e-08
8.91844e-10 0.0169667 -2.02901e-08
1.17202e-09 0.0169667 -2.04416e-08
1.0483e-09 0.0169667 -2.04924e-08
8.86541e-10 0.0169667 -2.05171e-08
9.00624e-10 0.0181896 -2.11337e-08
1.46163e-09 0.0181896 -2.11116e-08
1.29006e-09 0.0181896 -2.15512e-08
1.30819e-09 0.0181896 -2.12326e-08
1.42825e-09 0.0181896 -2.11349e-08
1.28531e-09 0.0181896 -2.10977e-08
1.35015e-09 0.0181896 -2.1056e-08
1.38711e-09 0.0181896 -2.10418e-08
1.20663e-09 0.0181896 -2.1186e-08
1.34356e-09 0.0181896 -2.12378e-08
1.36881e-09 0.0181896 -2.07948e-08
1.34855e-09 0.0181896 -2.08589e-08
1.37642e-09 0.0181896 -2.0966e-08
1.25422e-09 0.0181896 -2.10045e-08
1.00488e-09 0.0181896 -2.11987e-08
1.47213e-09 0.0181896 -2.07106e-08
1.27214e-09 0.0181896 -2.04888e-08
1.41972e-09 0.0181896 -2.05327e-08
1.34465e-09 0.0181896 -2.10158e-08
1.32456e-09 0.0181896 -2.0793e-08
1.3827e-09 0.0181896 -2.05737e-08
1.20442e-09 0.0181896 -2.06637e-08
1.40359e-09 0.0181896 -2.04764e-08
1.13217e-09 0.0181896 -2.0917e-08
1.47597e-09 0.0181896 -2.07125e-08
1.31747e-09 0.0194149 -2.07443e-08
1.72587e-09 0.0194149 -2.08643e-08
1.87624e-09 0.0194149 -2.08059e-08
1.55394e-09 0.0194149 -2.12754e-08
2.12224e-09 0.0194149 -2.1145e-08
1.61862e-09 0.0194149 -2.09221e-08
1.858e-09 0.0194149 -2.08568e-08
1.80604e-09 0.0194149 -2.09898e-08
1.60337e-09 0.0194149 -2.10807e-08
1.5952e-09 0.0194149 -2.11425e-08
1.94151e-09 0.0194149 -2.07527e-08
1.84857e-09 0.0194149 -2.07041e-08
1.86886e-09 0.0194149 -2.07595e-08
1.49926e-09 0.0194149 -2.09346e-08
1.38977e-09 0.0194149 -2.09756e-08
2.07239e-09 0.0194149 -2.07899e-08
1.82755e-09 0.0194149 -2.06619e-08
1.82182e-09 0.0194149 -2.04938e-08
1.51074e-09 0.0194149 -2.05946e-08
1.40998e-09 0.0194149 -2.08554e-08
2.10597e-09 0.0194149 -2.06091e-08
2.01915e-09 0.0194149 -2.05927e-08
1.51185e-09 0.0194149 -2.08353e-08
2.05166e-09 0.0194149 -2.05446e-08
1.58928e-09 0.0194149 -2.05505e-08
2.78765e-09 0.020643 -1.99771e-08
2.34004e-09 0.020643 -2.01822e-08
2.34899e-09 0.020643 -2.01117e-08
1.83714e-09 0.020643 -2.05193e-08
2.07715e-09 0.020643 -2.0608e-08
2.88262e-09 0.020643 -2.01884e-08
2.21503e-09 0.020643 -2.0232e-08
2.25229e-09 0.020643 -2.02836e-08
1.79214e-09 0.020643 -2.04102e-08
1.71389e-09 0.020643 -2.04356e-08
2.78425e-09 0.020643 -2.03176e-08
2.41063e-09 0.020643 -2.04477e-08
2.1587e-09 0.020643 -2.03164e-08
1.9723e-09 0.020643 -2.04391e-08
1.1657e-09 0.020643 -2.03621e-08
2.83479e-09 0.020643 -2.03878e-08
2.4726e-09 0.020643 -2.02598e-08
2.22939e-09 0.020643 -2.033e-08
1.90411e-09 0.020643 -2.03647e-08
1.50024e-09 0.020643 -2.03867e-08
2.73281e-09 0.020643 -2.01688e-08
2.31247e-09 0.020643 -2.0548e-08
2.55437e-09 0.020643 -2.04353e-08
1.84811e-09 0.020643 -2.03128e-08
1.23559e-09 0.020643 -2.04889e-08
3.3448e-09 0.0218742 -1.96808e-08
2.84658e-09 0.0218742 -1.91165e-08
2.65392e-09 0.0218742 -1.94071e-08
2.1514e-09 0.0218742 -1.97088e-08
2.44381e-09 0.0218742 -1.97527e-08
2.99133e-09 0.0218742 -1.94629e-08
2.8379e-09 0.0218742 -1.96804e-08
2.52024e-09 0.0218742 -1.94238e-08
2.2302e-09 0.0218742 -1.97996e-08
2.29263e-09 0.0218742 -1.98038e-08
3.32638e-09 0.0218742 -1.95715e-08
2.80585e-09 0.0218742 -1.96469e-08
2.53987e-09 0.0218742 -1.9751e-08
2.18844e-09 0.0218742 -1.95812e-08
2.12121e-09 0.0218742 -1.96254e-08
3.25293e-09 0.0218742 -1.95963e-08
2.84454e-09 0.0218742 -1.96901e-08
2.61563e-09 0.0218742 -1.96814e-08
2.34902e-09 0.0218742 -1.97838e-08
1.92156e-09 0.0218742 -1.95892e-08
3.15792e-09 0.0218742 -1.96127e-08
2.735e-09 0.0218742 -1.96031e-08
2.4173e-09 0.0218742 -1.98158e-08
2.37206e-09 0.0218742 -1.98299e-08
1.76884e-09 0.0218742 -1.97784e-08
2.62841e-09 0.0231089 -1.87741e-08
3.47925e-09 0.0231089 -1.84188e-08
2.49365e-09 0.0231089 -1.89113e-08
2.45091e-09 0.0231089 -1.85776e-08
2.91304e-09 0.0231089 -1.88093e-08
3.77685e-09 0.0231089 -1.84235e-08
3.25087e-09 0.0231089 -1.85871e-08
3.04454e-09 0.0231089 -1.85675e-08
2.55882e-09 0.0231089 -1.87553e-08
2.54217e-09 0.0231089 -1.88901e-08
3.49515e-09 0.0231089 -1.85548e-08
3.34377e-09 0.0231089 -1.84291e-08
2.93811e-09 0.0231089 -1.86622e-08
2.69049e-09 0.0231089 -1.88816e-08
2.53135e-09 0.0231089 -1.88171e-08
3.67163e-09 0.0231089 -1.85677e-08
3.23344e-09 0.0231089 -1.84156e-08
3.06659e-09 0.0231089 -1.84212e-08
2.69169e-09 0.0231089 -1.86222e-08
2.61573e-09 0.0231089 -1.86142e-08
3.3587e-09 0.0231089 -1.8561e-08
3.45787e-09 0.0231089 -1.87933e-08
3.14591e-09 0.0231089 -1.84945e-08
2.70291e-09 0.0231089 -1.87193e-08
2.85014e-09 0.0231089 -1.87218e-08
4.32733e-09 0.0243474 -1.67426e-08
3.66871e-09 0.0243474 -1.6965e-08
3.51659e-09 0.0243474 -1.71351e-08
2.63324e-09 0.0243474 -1.74068e-08
3.04437e-09 0.0243474 -1.73419e-08
4.18057e-09 0.0243474 -1.70557e-08
3.89756e-09 0.0243474 -1.70196e-08
3.18682e-09 0.0243474 -1.72274e-08
2.91635e-09 0.0243474 -1.74014e-08
2.95579e-09 0.0243474 -1.7414e-08
4.15191e-09 0.0243474 -1.71432e-08
3.56815e-09 0.0243474 -1.71201e-08
3.35386e-09 0.0243474 -1.70324e-08
3.0756e-09 0.0243474 -1.74163e-08
2.93841e-09 0.0243474 -1.75388e-08
3.83497e-09 0.0243474 -1.71159e-08
3.75206e-09 0.0243474 -1.71283e-08
3.26881e-09 0.0243474 -1.68434e-08
3.08078e-09 0.0243474 -1.71978e-08
2.69822e-09 0.0243474 -1.72127e-08
4.31233e-09 0.0243474 -1.72506e-08
3.60972e-09 0.0243474 -1.71528e-08
3.67293e-09 0.0243474 -1.71728e-08
3.04231e-09 0.0243474 -1.7155e-08
3.0159e-09 0.0243474 -1.71348e-08
4.5114e-09 0.0255898 -1.51714e-08
4.1116e-09 0.0255898 -1.54788e-08
3.80749e-09 0.0255898 -1.55162e-08
2.92015e-09 0.0255898 -1.59309e-08
3.44777e-09 0.0255898 -1.5518e-08
4.4051e-09 0.0255898 -1.54642e-08
4.12943e-09 0.0255898 -1.5481e-08
3.67296e-09 0.0255898 -1.55297e-08
3.09597e-09 0.0255898 -1.57038e-08
3.22996e-09 0.0255898 -1.56726e-08
4.15687e-09 0.0255898 -1.53669e-08
4.11632e-09 0.0255898 -1.53767e-08
3.57627e-09 0.0255898 -1.54931e-08
3.31316e-09 0.0255898 -1.56448e-08
3.53369e-09 0.0255898 -1.58177e-08
4.41393e-09 0.0255898 -1.53422e-08
3.84735e-09 0.0255898 -1.52347e-08
3.80874e-09 0.0255898 -1.54218e-08
3.30756e-09 0.0255898 -1.57883e-08
3.41963e-09 0.0255898 -1.55304e-08
4.02604e-09 0.0255898 -1.52352e-08
4.32315e-09 0.0255898 -1.53921e-08
3.70941e-09 0.0255898 -1.51616e-08
3.52943e-09 0.0255898 -1.52755e-08
2.53417e-09 0.0255898 -1.55632e-08
4.7296e-09 0.0268358 -1.38875e-08
4.6754e-09 0.0268358 -1.37163e-08
4.03763e-09 0.0268358 -1.43681e-08
3.25755e-09 0.0268358 -1.42886e-08
3.19217e-09 0.0268358 -1.36335e-08
4.58397e-09 0.0268358 -1.36491e-08
4.62145e-09 0.0268358 -1.39215e-08
3.96085e-09 0.0268358 -1.39311e-08
3.52982e-09 0.0268358 -1.3748e-08
3.11282e-09 0.0268358 -1.38417e-08
4.9798e-09 0.0268358 -1.35636e-08
4.3178e-09 0.0268358 -1.34658e-08
4.06852e-09 0.0268358 -1.3655e-08
3.53744e-09 0.0268358 -1.38917e-08
4.04042e-09 0.0268358 -1.3693e-08
4.63826e-09 0.0268358 -1.35381e-08
4.41989e-09 0.0268358 -1.35423e-08
3.98842e-09 0.0268358 -1.35177e-08
3.73655e-09 0.0268358 -1.35535e-08
3.42168e-09 0.0268358 -1.36932e-08
5.02884e-09 0.0268358 -1.34109e-08
4.22722e-09 0.0268358 -1.37763e-08
4.00838e-09 0.0268358 -1.34229e-08
3.65264e-09 0.0268358 -1.31547e-08
3.14908e-09 0.0268358 -1.36102e-08
5.10939e-09 0.0280852 -1.16525e-08
4.71273e-09 0.0280852 -1.20444e-08
4.38296e-09 0.0280852 -1.2124e-08
4.13184e-09 0.0280852 -1.21266e-08
2.9766e-09 0.0280852 -1.26284e-08
5.16685e-09 0.0280852 -1.17921e-08
4.55436e-09 0.0280852 -1.20613e-08