<?xml version="1.0"?>
<VTKFile type="UnstructuredGrid" version="0.1" byte_order="LittleEndian">
<UnstructuredGrid>
<Piece NumberOfPoints="1025" NumberOfCells="640">
<Points>
<DataArray type="Float32" NumberOfComponents="3" format="ascii">
0 0 0
0.025 0 0
0.05 0 0
0.075 0 0
0.1 0 0
0 0.025 0
0.025 0.025 0
0.05 0.025 0
0.075 0.025 0
0.1 0.025 0
0 0.05 0
0.025 0.05 0
0.05 0.05 0
0.075 0.05 0
0.1 0.05 0
0 0.075 0
0.025 0.075 0
0.05 0.075 0
0.075 0.075 0
0.1 0.075 0
0 0.1 0
0.025 0.1 0
0.05 0.1 0
0.075 0.1 0
0.1 0.1 0
0 0 0.025
0.025 0 0.025
0.05 0 0.025
0.075 0 0.025
0.1 0 0.025
0 0.025 0.025
0.025 0.025 0.025
0.05 0.025 0.025
0.075 0.025 0.025
0.1 0.025 0.025
0 0.05 0.025
0.025 0.05 0.025
0.05 0.05 0.025
0.075 0.05 0.025
0.1 0.05 0.025
0 0.075 0.025
0.025 0.075 0.025
0.05 0.075 0.025
0.075 0.075 0.025
0.1 0.075 0.025
0 0.1 0.025
0.025 0.1 0.025
0.05 0.1 0.025
0.075 0.1 0.025
0.1 0.1 0.025
0 0 0.05
0.025 0 0.05
0.05 0 0.05
0.075 0 0.05
0.1 0 0.05
0 0.025 0.05
0.025 0.025 0.05
0.05 0.025 0.05
0.075 0.025 0.05
0.1 0.025 0.05
0 0.05 0.05
0.025 0.05 0.05
0.05 0.05 0.05
0.075 0.05 0.05
0.1 0.05 0.05
0 0.075 0.05
0.025 0.075 0.05
0.05 0.075 0.05
0.075 0.075 0.05
0.1 0.075 0.05
0 0.1 0.05
0.025 0.1 0.05
0.05 0.1 0.05
0.075 0.1 0.05
0.1 0.1 0.05
0 0 0.075
0.025 0 0.075
0.05 0 0.075
0.075 0 0.075
0.1 0 0.075
0 0.025 0.075
0.025 0.025 0.075
0.05 0.025 0.075
0.075 0.025 0.075
0.1 0.025 0.075
0 0.05 0.075
0.025 0.05 0.075
0.05 0.05 0.075
0.075 0.05 0.075
0.1 0.05 0.075
0 0.075 0.075
0.025 0.075 0.075
0.05 0.075 0.075
0.075 0.075 0.075
0.1 0.075 0.075
0 0.1 0.075
0.025 0.1 0.075
0.05 0.1 0.075
0.075 0.1 0.075
0.1 0.1 0.075
0 0 0.1
0.025 0 0.1
0.05 0 0.1
0.075 0 0.1
0.1 0 0.1
0 0.025 0.1
0.025 0.025 0.1
0.05 0.025 0.1
0.075 0.025 0.1
0.1 0.025 0.1
0 0.05 0.1
0.025 0.05 0.1
0.05 0.05 0.1
0.075 0.05 0.1
0.1 0.05 0.1
0 0.075 0.1
0.025 0.075 0.1
0.05 0.075 0.1
0.075 0.075 0.1
0.1 0.075 0.1
0 0.1 0.1
0.025 0.1 0.1
0.05 0.1 0.1
0.075 0.1 0.1
0.1 0.1 0.1
0 0 0.125
0.025 0 0.125
0.05 0 0.125
0.075 0 0.125
0.1 0 0.125
0 0.025 0.125
0.025 0.025 0.125
0.05 0.025 0.125
0.075 0.025 0.125
0.1 0.025 0.125
0 0.05 0.125
0.025 0.05 0.125
0.05 0.05 0.125
0.075 0.05 0.125
0.1 0.05 0.125
0 0.075 0.125
0.025 0.075 0.125
0.05 0.075 0.125
0.075 0.075 0.125
0.1 0.075 0.125
0 0.1 0.125
0.025 0.1 0.125
0.05 0.1 0.125
0.075 0.1 0.125
0.1 0.1 0.125
0 0 0.15
0.025 0 0.15
0.05 0 0.15
0.075 0 0.15
0.1 0 0.15
0 0.025 0.15
0.025 0.025 0.15
0.05 0.025 0.15
0.075 0.025 0.15
0.1 0.025 0.15
0 0.05 0.15
0.025 0.05 0.15
0.05 0.05 0.15
0.075 0.05 0.15
0.1 0.05 0.15
0 0.075 0.15
0.025 0.075 0.15
0.05 0.075 0.15
0.075 0.075 0.15
0.1 0.075 0.15
0 0.1 0.15
0.025 0.1 0.15
0.05 0.1 0.15
0.075 0.1 0.15
0.1 0.1 0.15
0 0 0.175
0.025 0 0.175
0.05 0 0.175
0.075 0 0.175
0.1 0 0.175
0 0.025 0.175
0.025 0.025 0.175
0.05 0.025 0.175
0.075 0.025 0.175
0.1 0.025 0.175
0 0.05 0.175
0.025 0.05 0.175
0.05 0.05 0.175
0.075 0.05 0.175
0.1 0.05 0.175
0 0.075 0.175
0.025 0.075 0.175
0.05 0.075 0.175
0.075 0.075 0.175
0.1 0.075 0.175
0 0.1 0.175
0.025 0.1 0.175
0.05 0.1 0.175
0.075 0.1 0.175
0.1 0.1 0.175
0 0 0.2
0.025 0 0.2
0.05 0 0.2
0.075 0 0.2
0.1 0 0.2
0 0.025 0.2
0.025 0.025 0.2
0.05 0.025 0.2
0.075 0.025 0.2
0.1 0.025 0.2
0 0.05 0.2
0.025 0.05 0.2
0.05 0.05 0.2
0.075 0.05 0.2
0.1 0.05 0.2
0 0.075 0.2
0.025 0.075 0.2
0.05 0.075 0.2
0.075 0.075 0.2
0.1 0.075 0.2
0 0.1 0.2
0.025 0.1 0.2
0.05 0.1 0.2
0.075 0.1 0.2
0.1 0.1 0.2
0 0 0.225
0.025 0 0.225
0.05 0 0.225
0.075 0 0.225
0.1 0 0.225
0 0.025 0.225
0.025 0.025 0.225
0.05 0.025 0.225
0.075 0.025 0.225
0.1 0.025 0.225
0 0.05 0.225
0.025 0.05 0.225
0.05 0.05 0.225
0.075 0.05 0.225
0.1 0.05 0.225
0 0.075 0.225
0.025 0.075 0.225
0.05 0.075 0.225
0.075 0.075 0.225
0.1 0.075 0.225
0 0.1 0.225
0.025 0.1 0.225
0.05 0.1 0.225
0.075 0.1 0.225
0.1 0.1 0.225
0 0 0.25
0.025 0 0.25
0.05 0 0.25
0.075 0 0.25
0.1 0 0.25
0 0.025 0.25
0.025 0.025 0.25
0.05 0.025 0.25
0.075 0.025 0.25
0.1 0.025 0.25
0 0.05 0.25
0.025 0.05 0.25
0.05 0.05 0.25
0.075 0.05 0.25
0.1 0.05 0.25
0 0.075 0.25
0.025 0.075 0.25
0.05 0.075 0.25
0.075 0.075 0.25
0.1 0.075 0.25
0 0.1 0.25
0.025 0.1 0.25
0.05 0.1 0.25
0.075 0.1 0.25
0.1 0.1 0.25
0 0 0.275
0.025 0 0.275
0.05 0 0.275
0.075 0 0.275
0.1 0 0.275
0 0.025 0.275
0.025 0.025 0.275
0.05 0.025 0.275
0.075 0.025 0.275
0.1 0.025 0.275
0 0.05 0.275
0.025 0.05 0.275
0.05 0.05 0.275
0.075 0.05 0.275
0.1 0.05 0.275
0 0.075 0.275
0.025 0.075 0.275
0.05 0.075 0.275
0.075 0.075 0.275
0.1 0.075 0.275
0 0.1 0.275
0.025 0.1 0.275
0.05 0.1 0.275
0.075 0.1 0.275
0.1 0.1 0.275
0 0 0.3
0.025 0 0.3
0.05 0 0.3
0.075 0 0.3
0.1 0 0.3
0 0.025 0.3
0.025 0.025 0.3
0.05 0.025 0.3
0.075 0.025 0.3
0.1 0.025 0.3
0 0.05 0.3
0.025 0.05 0.3
0.05 0.05 0.3
0.075 0.05 0.3
0.1 0.05 0.3
0 0.075 0.3
0.025 0.075 0.3
0.05 0.075 0.3
0.075 0.075 0.3
0.1 0.075 0.3
0 0.1 0.3
0.025 0.1 0.3
0.05 0.1 0.3
0.075 0.1 0.3
0.1 0.1 0.3
0 0 0.325
0.025 0 0.325
0.05 0 0.325
0.075 0 0.325
0.1 0 0.325
0 0.025 0.325
0.025 0.025 0.325
0.05 0.025 0.325
0.075 0.025 0.325
0.1 0.025 0.325
0 0.05 0.325
0.025 0.05 0.325
0.05 0.05 0.325
0.075 0.05 0.325
0.1 0.05 0.325
0 0.075 0.325
0.025 0.075 0.325
0.05 0.075 0.325
0.075 0.075 0.325
0.1 0.075 0.325
0 0.1 0.325
0.025 0.1 0.325
0.05 0.1 0.325
0.075 0.1 0.325
0.1 0.1 0.325
0 0 0.35
0.025 0 0.35
0.05 0 0.35
0.075 0 0.35
0.1 0 0.35
0 0.025 0.35
0.025 0.025 0.35
0.05 0.025 0.35
0.075 0.025 0.35
0.1 0.025 0.35
0 0.05 0.35
0.025 0.05 0.35
0.05 0.05 0.35
0.075 0.05 0.35
0.1 0.05 0.35
0 0.075 0.35
0.025 0.075 0.35
0.05 0.075 0.35
0.075 0.075 0.35
0.1 0.075 0.35
0 0.1 0.35
0.025 0.1 0.35
0.05 0.1 0.35
0.075 0.1 0.35
0.1 0.1 0.35
0 0 0.375
0.025 0 0.375
0.05 0 0.375
0.075 0 0.375
0.1 0 0.375
0 0.025 0.375
0.025 0.025 0.375
0.05 0.025 0.375
0.075 0.025 0.375
0.1 0.025 0.375
0 0.05 0.375
0.025 0.05 0.375
0.05 0.05 0.375
0.075 0.05 0.375
0.1 0.05 0.375
0 0.075 0.375
0.025 0.075 0.375
0.05 0.075 0.375
0.075 0.075 0.375
0.1 0.075 0.375
0 0.1 0.375
0.025 0.1 0.375
0.05 0.1 0.375
0.075 0.1 0.375
0.1 0.1 0.375
0 0 0.4
0.025 0 0.4
0.05 0 0.4
0.075 0 0.4
0.1 0 0.4
0 0.025 0.4
0.025 0.025 0.4
0.05 0.025 0.4
0.075 0.025 0.4
0.1 0.025 0.4
0 0.05 0.4
0.025 0.05 0.4
0.05 0.05 0.4
0.075 0.05 0.4
0.1 0.05 0.4
0 0.075 0.4
0.025 0.075 0.4
0.05 0.075 0.4
0.075 0.075 0.4
0.1 0.075 0.4
0 0.1 0.4
0.025 0.1 0.4
0.05 0.1 0.4
0.075 0.1 0.4
0.1 0.1 0.4
0 0 0.425
0.025 0 0.425
0.05 0 0.425
0.075 0 0.425
0.1 0 0.425
0 0.025 0.425
0.025 0.025 0.425
0.05 0.025 0.425
0.075 0.025 0.425
0.1 0.025 0.425
0 0.05 0.425
0.025 0.05 0.425
0.05 0.05 0.425
0.075 0.05 0.425
0.1 0.05 0.425
0 0.075 0.425
0.025 0.075 0.425
0.05 0.075 0.425
0.075 0.075 0.425
0.1 0.075 0.425
0 0.1 0.425
0.025 0.1 0.425
0.05 0.1 0.425
0.075 0.1 0.425
0.1 0.1 0.425
0 0 0.45
0.025 0 0.45
0.05 0 0.45
0.075 0 0.45
0.1 0 0.45
0 0.025 0.45
0.025 0.025 0.45
0.05 0.025 0.45
0.075 0.025 0.45
0.1 0.025 0.45
0 0.05 0.45
0.025 0.05 0.45
0.05 0.05 0.45
0.075 0.05 0.45
0.1 0.05 0.45
0 0.075 0.45
0.025 0.075 0.45
0.05 0.075 0.45
0.075 0.075 0.45
0.1 0.075 0.45
0 0.1 0.45
0.025 0.1 0.45
0.05 0.1 0.45
0.075 0.1 0.45
0.1 0.1 0.45
0 0 0.475
0.025 0 0.475
0.05 0 0.475
0.075 0 0.475
0.1 0 0.475
0 0.025 0.475
0.025 0.025 0.475
0.05 0.025 0.475
0.075 0.025 0.475
0.1 0.025 0.475
0 0.05 0.475
0.025 0.05 0.475
0.05 0.05 0.475
0.075 0.05 0.475
0.1 0.05 0.475
0 0.075 0.475
0.025 0.075 0.475
0.05 0.075 0.475
0.075 0.075 0.475
0.1 0.075 0.475
0 0.1 0.475
0.025 0.1 0.475
0.05 0.1 0.475
0.075 0.1 0.475
0.1 0.1 0.475
0 0 0.5
0.025 0 0.5
0.05 0 0.5
0.075 0 0.5
0.1 0 0.5
0 0.025 0.5
0.025 0.025 0.5
0.05 0.025 0.5
0.075 0.025 0.5
0.1 0.025 0.5
0 0.05 0.5
0.025 0.05 0.5
0.05 0.05 0.5
0.075 0.05 0.5
0.1 0.05 0.5
0 0.075 0.5
0.025 0.075 0.5
0.05 0.075 0.5
0.075 0.075 0.5
0.1 0.075 0.5
0 0.1 0.5
0.025 0.1 0.5
0.05 0.1 0.5
0.075 0.1 0.5
0.1 0.1 0.5
0 0 0.525
0.025 0 0.525
0.05 0 0.525
0.075 0 0.525
0.1 0 0.525
0 0.025 0.525
0.025 0.025 0.525
0.05 0.025 0.525
0.075 0.025 0.525
0.1 0.025 0.525
0 0.05 0.525
0.025 0.05 0.525
0.05 0.05 0.525
0.075 0.05 0.525
0.1 0.05 0.525
0 0.075 0.525
0.025 0.075 0.525
0.05 0.075 0.525
0.075 0.075 0.525
0.1 0.075 0.525
0 0.1 0.525
0.025 0.1 0.525
0.05 0.1 0.525
0.075 0.1 0.525
0.1 0.1 0.525
0 0 0.55
0.025 0 0.55
0.05 0 0.55
0.075 0 0.55
0.1 0 0.55
0 0.025 0.55
0.025 0.025 0.55
0.05 0.025 0.55
0.075 0.025 0.55
0.1 0.025 0.55
0 0.05 0.55
0.025 0.05 0.55
0.05 0.05 0.55
0.075 0.05 0.55
0.1 0.05 0.55
0 0.075 0.55
0.025 0.075 0.55
0.05 0.075 0.55
0.075 0.075 0.55
0.1 0.075 0.55
0 0.1 0.55
0.025 0.1 0.55
0.05 0.1 0.55
0.075 0.1 0.55
0.1 0.1 0.55
0 0 0.575
0.025 0 0.575
0.05 0 0.575
0.075 0 0.575
0.1 0 0.575
0 0.025 0.575
0.025 0.025 0.575
0.05 0.025 0.575
0.075 0.025 0.575
0.1 0.025 0.575
0 0.05 0.575
0.025 0.05 0.575
0.05 0.05 0.575
0.075 0.05 0.575
0.1 0.05 0.575
0 0.075 0.575
0.025 0.075 0.575
0.05 0.075 0.575
0.075 0.075 0.575
0.1 0.075 0.575
0 0.1 0.575
0.025 0.1 0.575
0.05 0.1 0.575
0.075 0.1 0.575
0.1 0.1 0.575
0 0 0.6
0.025 0 0.6
0.05 0 0.6
0.075 0 0.6
0.1 0 0.6
0 0.025 0.6
0.025 0.025 0.6
0.05 0.025 0.6
0.075 0.025 0.6
0.1 0.025 0.6
0 0.05 0.6
0.025 0.05 0.6
0.05 0.05 0.6
0.075 0.05 0.6
0.1 0.05 0.6
0 0.075 0.6
0.025 0.075 0.6
0.05 0.075 0.6
0.075 0.075 0.6
0.1 0.075 0.6
0 0.1 0.6
0.025 0.1 0.6
0.05 0.1 0.6
0.075 0.1 0.6
0.1 0.1 0.6
0 0 0.625
0.025 0 0.625
0.05 0 0.625
0.075 0 0.625
0.1 0 0.625
0 0.025 0.625
0.025 0.025 0.625
0.05 0.025 0.625
0.075 0.025 0.625
0.1 0.025 0.625
0 0.05 0.625
0.025 0.05 0.625
0.05 0.05 0.625
0.075 0.05 0.625
0.1 0.05 0.625
0 0.075 0.625
0.025 0.075 0.625
0.05 0.075 0.625
0.075 0.075 0.625
0.1 0.075 0.625
0 0.1 0.625
0.025 0.1 0.625
0.05 0.1 0.625
0.075 0.1 0.625
0.1 0.1 0.625
0 0 0.65
0.025 0 0.65
0.05 0 0.65
0.075 0 0.65
0.1 0 0.65
0 0.025 0.65
0.025 0.025 0.65
0.05 0.025 0.65
0.075 0.025 0.65
0.1 0.025 0.65
0 0.05 0.65
0.025 0.05 0.65
0.05 0.05 0.65
0.075 0.05 0.65
0.1 0.05 0.65
0 0.075 0.65
0.025 0.075 0.65
0.05 0.075 0.65
0.075 0.075 0.65
0.1 0.075 0.65
0 0.1 0.65
0.025 0.1 0.65
0.05 0.1 0.65
0.075 0.1 0.65
0.1 0.1 0.65
0 0 0.675
0.025 0 0.675
0.05 0 0.675
0.075 0 0.675
0.1 0 0.675
[...]
<PointData Vectors="Displacement">
<DataArray type="Float32" Name="Displacement" NumberOfComponents="3" format="ascii">
0 0 0
0 0 0
0 0 0
0 0 0
0 0 0
0 0 0
0 0 0
0 0 0
0 0 0
0 0 0
0 0 0
0 0 0
0 0 0
0 0 0
0 0 0
0 0 0
0 0 0
0 0 0
0 0 0
0 0 0
0 0 0
0 0 0
0 0 0
0 0 0
0 0 0
-2.84612e-10 0.000859544 -5.33726e-10
-1.7155e-10 0.000859543 -5.03659e-10
-1.25915e-10 0.000859543 -5.05522e-10
-5.28991e-11 0.000859543 -4.85685e-10
3.80438e-11 0.000859543 -5.04714e-10
-2.90879e-10 0.000859544 -5.17908e-10
-1.82714e-10 0.000859544 -5.06639e-10
-1.08163e-10 0.000859544 -5.1416e-10
-6.2443e-11 0.000859543 -5.12938e-10
6.70087e-11 0.000859544 -5.10056e-10
-2.87476e-10 0.000859544 -5.16875e-10
-1.92598e-10 0.000859544 -5.18234e-10
-1.25912e-10 0.000859544 -5.17629e-10
-5.09288e-11 0.000859543 -5.11971e-10
5.84871e-11 0.000859543 -5.28572e-10
-2.80328e-10 0.000859544 -5.17983e-10
-1.91852e-10 0.000859544 -5.08688e-10
-1.25023e-10 0.000859544 -5.14061e-10
-6.07214e-11 0.000859543 -5.15068e-10
4.2282e-11 0.000859543 -5.25499e-10
-2.68574e-10 0.000859544 -4.84718e-10
-1.63395e-10 0.000859544 -5.15184e-10
-1.20458e-10 0.000859544 -5.21797e-10
-7.05011e-11 0.000859544 -4.95387e-10
2.08849e-11 0.000859544 -4.97699e-10
-4.24816e-10 0.00172786 -1.06543e-09
-3.53903e-10 0.00172786 -1.03457e-09
-2.22027e-10 0.00172786 -1.03042e-09
-1.37091e-10 0.00172786 -1.0428e-09
-3.72529e-13 0.00172786 -1.07419e-09
-4.73485e-10 0.00172786 -1.04345e-09
-3.35765e-10 0.00172786 -1.04416e-09
-2.25124e-10 0.00172786 -1.04736e-09
-1.36718e-10 0.00172786 -1.06732e-09
-2.04891e-11 0.00172786 -1.02819e-09
-4.45545e-10 0.00172786 -1.03842e-09
-3.49991e-10 0.00172786 -1.05362e-09
-2.44488e-10 0.00172786 -1.06525e-09
-1.57952e-10 0.00172786 -1.04885e-09
1.3411e-11 0.00172786 -1.06315e-09
-4.66406e-10 0.00172786 -1.06543e-09
-3.39886e-10 0.00172786 -1.05116e-09
-2.46712e-10 0.00172786 -1.03944e-09
-1.72108e-10 0.00172786 -1.05518e-09
-2.44004e-11 0.00172786 -1.07418e-09
-4.27198e-10 0.00172786 -1.08038e-09
-3.32507e-10 0.00172786 -1.08629e-09
-2.73541e-10 0.00172786 -1.06827e-09
-1.64658e-10 0.00172786 -1.04441e-09
-6.61705e-11 0.00172786 -1.09541e-09
-6.19888e-10 0.00261377 -1.56984e-09
-4.50015e-10 0.00261377 -1.55973e-09
-2.7772e-10 0.00261377 -1.56197e-09
-2.89828e-10 0.00261377 -1.61663e-09
-1.2666e-10 0.00261377 -1.60765e-09
-5.75668e-10 0.00261377 -1.58995e-09
-4.78607e-10 0.00261377 -1.58485e-09
-3.50773e-10 0.00261377 -1.59918e-09
-2.51294e-10 0.00261377 -1.56518e-09
-1.03097e-10 0.00261377 -1.61952e-09
-5.87478e-10 0.00261377 -1.57617e-09
-4.92483e-10 0.00261377 -1.56946e-09
-3.75137e-10 0.00261377 -1.56846e-09
-2.59408e-10 0.00261377 -1.60258e-09
-1.08685e-10 0.00261377 -1.56604e-09
-5.39448e-10 0.00261377 -1.63387e-09
-4.77141e-10 0.00261377 -1.61696e-09
-3.9991e-10 0.00261377 -1.62887e-09
-2.89817e-10 0.00261377 -1.60791e-09
-1.87475e-10 0.00261377 -1.59824e-09
-5.83706e-10 0.00261377 -1.62979e-09
-4.53819e-10 0.00261377 -1.62534e-09
-3.67341e-10 0.00261377 -1.6358e-09
-3.45836e-10 0.00261377 -1.61398e-09
-2.00979e-10 0.00261377 -1.69277e-09
-8.05171e-10 0.00352614 -2.12863e-09
-6.46959e-10 0.00352614 -2.18814e-09
-4.7544e-10 0.00352614 -2.18172e-09
-4.07686e-10 0.00352614 -2.17453e-09
-1.96695e-10 0.00352614 -2.13906e-09
-7.36981e-10 0.00352614 -2.15058e-09
-6.31146e-10 0.00352614 -2.14265e-09
-4.82053e-10 0.00352614 -2.10863e-09
-3.79211e-10 0.00352614 -2.11354e-09
-1.95671e-10 0.00352614 -2.1707e-09
-7.6557e-10 0.00352614 -2.19375e-09
-6.40657e-10 0.00352614 -2.14822e-09
-4.91552e-10 0.00352614 -2.17099e-09
-3.62048e-10 0.00352614 -2.13851e-09
-2.04891e-10 0.00352614 -2.13801e-09
-7.01007e-10 0.00352614 -2.18516e-09
-6.26939e-10 0.00352614 -2.16944e-09
-5.0033e-10 0.00352614 -2.16273e-09
-4.14912e-10 0.00352614 -2.13631e-09
-2.66103e-10 0.00352614 -2.14581e-09
-7.2103e-10 0.00352614 -2.14726e-09
-5.94096e-10 0.00352614 -2.21254e-09
-5.28432e-10 0.00352614 -2.20532e-09
-4.68362e-10 0.00352614 -2.13801e-09
-2.90573e-10 0.00352614 -2.21658e-09
-1.01255e-09 0.00447396 -2.76826e-09
-8.51122e-10 0.00447396 -2.7239e-09
-6.41388e-10 0.00447396 -2.70223e-09
-4.11272e-10 0.00447396 -2.71369e-09
-2.06521e-10 0.00447396 -2.81148e-09
-9.86651e-10 0.00447396 -2.72123e-09
-8.15773e-10 0.00447396 -2.72127e-09
-6.19306e-10 0.00447396 -2.73572e-09
-5.13571e-10 0.00447396 -2.73848e-09
-2.99557e-10 0.00447396 -2.67549e-09
-9.13118e-10 0.00447396 -2.74312e-09
-7.87526e-10 0.00447396 -2.70121e-09
-6.0536e-10 0.00447396 -2.65371e-09
-4.85778e-10 0.00447396 -2.64596e-09
-3.12425e-10 0.00447396 -2.69711e-09
-9.0003e-10 0.00447396 -2.71937e-09
-7.7188e-10 0.00447396 -2.71918e-09
-6.29411e-10 0.00447396 -2.62824e-09
-5.63404e-10 0.00447396 -2.6416e-09
-3.27826e-10 0.00447396 -2.62523e-09
-9.09061e-10 0.00447396 -2.723e-09
-6.53043e-10 0.00447396 -2.59439e-09
-6.12065e-10 0.00447396 -2.65678e-09
-5.88992e-10 0.00447396 -2.65529e-09
-4.29153e-10 0.00447396 -2.69366e-09
-1.27815e-09 0.00546631 -3.30806e-09
-1.09747e-09 0.00546631 -3.25311e-09
-7.40605e-10 0.00546631 -3.37667e-09
-6.64865e-10 0.00546631 -3.36766e-09
-2.98023e-10 0.00546631 -3.23579e-09
-1.14064e-09 0.00546631 -3.28626e-09
-1.01505e-09 0.00546631 -3.28608e-09
-7.93773e-10 0.00546631 -3.21908e-09
-6.11471e-10 0.00546631 -3.26987e-09
-3.89532e-10 0.00546631 -3.28183e-09
-1.09717e-09 0.00546631 -3.30489e-09
-9.41008e-10 0.00546631 -3.26042e-09
-7.73836e-10 0.00546631 -3.26498e-09
-6.19888e-10 0.00546631 -3.18643e-09
-5.91529e-10 0.00546631 -3.25982e-09
-1.11721e-09 0.00546631 -3.2983e-09
-9.0003e-10 0.00546631 -3.21157e-09
-7.49156e-10 0.00546631 -3.19192e-09
-7.1153e-10 0.00546631 -3.2021e-09
-6.35535e-10 0.00546631 -3.15041e-09
-1.00322e-09 0.00546631 -3.37958e-09
-8.8849e-10 0.00546631 -3.25331e-09
-8.33259e-10 0.00546631 -3.26341e-09
-7.89762e-10 0.00546631 -3.12373e-09
-5.126e-10 0.00546631 -3.22945e-09
-1.40518e-09 0.00651244 -3.92199e-09
-1.25577e-09 0.00651244 -3.83258e-09
-1.07854e-09 0.00651244 -3.85493e-09
-7.55245e-10 0.00651244 -3.98392e-09
-6.07967e-10 0.00651244 -3.99677e-09
-1.39773e-09 0.00651244 -3.76679e-09
-1.18874e-09 0.00651244 -3.8172e-09
-9.62382e-10 0.00651244 -3.83488e-09
-7.73766e-10 0.00651244 -3.73758e-09
-5.56745e-10 0.00651244 -3.86698e-09
-1.20252e-09 0.00651244 -3.78488e-09
-1.11312e-09 0.00651244 -3.82066e-09
-9.70997e-10 0.00651244 -3.78378e-09
-8.24779e-10 0.00651244 -3.75514e-09
-6.1281e-10 0.00651244 -3.84126e-09
-1.31726e-09 0.00651244 -3.83841e-09
-1.09281e-09 0.00651244 -3.79876e-09
-9.73046e-10 0.00651244 -3.86108e-09
-9.08226e-10 0.00651244 -3.74341e-09
-7.48038e-10 0.00651244 -3.81507e-09
-1.33596e-09 0.00651244 -3.87132e-09
-1.00411e-09 0.00651244 -3.86779e-09
-9.90622e-10 0.00651244 -3.80166e-09
-8.7943e-10 0.00651244 -3.75513e-09
-8.9407e-10 0.00651244 -3.81887e-09
-1.61499e-09 0.00762174 -4.46513e-09
-1.46031e-09 0.00762174 -4.46781e-09
-1.14329e-09 0.00762174 -4.44028e-09
-1.06096e-09 0.00762174 -4.385e-09
-7.57155e-10 0.00762174 -4.52176e-09
-1.61445e-09 0.00762174 -4.45632e-09
-1.32548e-09 0.00762174 -4.38235e-09
-1.13728e-09 0.00762174 -4.37722e-09
-1.08383e-09 0.00762174 -4.34559e-09
-7.21216e-10 0.00762174 -4.46944e-09
-1.52588e-09 0.00762174 -4.46867e-09
-1.32471e-09 0.00762174 -4.37152e-09
-1.13621e-09 0.00762174 -4.41026e-09
-1.11377e-09 0.00762174 -4.37519e-09
-8.09785e-10 0.00762174 -4.41596e-09
-1.39475e-09 0.00762174 -4.40325e-09
-1.30973e-09 0.00762174 -4.40853e-09
-1.19545e-09 0.00762174 -4.38533e-09
-1.06455e-09 0.00762174 -4.34876e-09
-9.17912e-10 0.00762173 -4.34229e-09
-1.16347e-09 0.00762174 -4.44129e-09
-1.47533e-09 0.00762174 -4.42648e-09
-1.19412e-09 0.00762174 -4.52101e-09
-1.0882e-09 0.00762174 -4.3435e-09
-8.51415e-10 0.00762174 -4.39361e-09
-1.71214e-09 0.00880372 -5.29109e-09
-1.44392e-09 0.00880372 -5.20893e-09
-1.2556e-09 0.00880372 -5.19897e-09
-1.10766e-09 0.00880372 -5.14745e-09
-1.16974e-09 0.00880372 -5.16251e-09
-1.65676e-09 0.00880372 -5.22742e-09
-1.51063e-09 0.00880372 -5.16885e-09
-1.27265e-09 0.00880372 -5.16288e-09
-1.24983e-09 0.00880372 -5.17033e-09
-1.01626e-09 0.00880372 -5.10842e-09
-1.6503e-09 0.00880372 -5.18784e-09
-1.5974e-09 0.00880372 -5.07362e-09
-1.35303e-09 0.00880372 -5.17952e-09
-1.23456e-09 0.00880372 -5.03231e-09
-1.1161e-09 0.00880372 -4.88381e-09
-1.71141e-09 0.00880372 -5.17629e-09
-1.57878e-09 0.00880372 -5.09238e-09
-1.42395e-09 0.00880372 -5.03019e-09
-1.29789e-09 0.00880372 -4.92577e-09
-1.22488e-09 0.00880372 -5.00085e-09
-1.64006e-09 0.00880372 -5.22253e-09
-1.45584e-09 0.00880372 -5.0616e-09
-1.45403e-09 0.00880372 -5.11685e-09
-1.34036e-09 0.00880372 -5.07794e-09
-1.23066e-09 0.00880372 -5.01673e-09
-2.1413e-09 0.010068 -5.93867e-09
-1.69133e-09 0.010068 -5.76638e-09
-1.43808e-09 0.010068 -5.91874e-09
-1.34557e-09 0.010068 -5.85439e-09
-1.00192e-09 0.010068 -5.80773e-09
-2.15173e-09 0.010068 -6.00591e-09
-1.84942e-09 0.010068 -5.86663e-09
-1.5676e-09 0.010068 -5.89974e-09
-1.37389e-09 0.010068 -5.82226e-09
-1.31577e-09 0.010068 -5.81282e-09
-2.13962e-09 0.010068 -5.96222e-09
-1.93864e-09 0.010068 -5.84722e-09
-1.66297e-09 0.010068 -5.78165e-09
-1.45992e-09 0.010068 -5.73564e-09
-1.31414e-09 0.010068 -5.89198e-09
-2.14767e-09 0.010068 -5.89229e-09
-1.86712e-09 0.010068 -5.88112e-09
-1.69277e-09 0.010068 -5.77122e-09
-1.52588e-09 0.010068 -5.77122e-09
-1.41412e-09 0.010068 -5.72828e-09
-1.91731e-09 0.010068 -5.72987e-09
-1.8939e-09 0.010068 -5.87944e-09
-1.5974e-09 0.010068 -5.8528e-09
-1.69055e-09 0.010068 -5.51572e-09
-1.06011e-09 0.010068 -5.68591e-09
-2.24113e-09 0.0114244 -6.56312e-09
-2.31266e-09 0.0114244 -6.49095e-09
-1.8768e-09 0.0114244 -6.45238e-09
-1.66297e-09 0.0114244 -6.37506e-09
-1.78055e-09 0.0114244 -6.2326e-09
-2.55257e-09 0.0114244 -6.37728e-09
-2.26373e-09 0.0114244 -6.45378e-09
-1.8239e-09 0.0114244 -6.46095e-09
-1.6477e-09 0.0114244 -6.49199e-09
-1.36746e-09 0.0114244 -6.35874e-09
-2.62037e-09 0.0114244 -6.53352e-09
-2.19494e-09 0.0114244 -6.54995e-09
-1.96099e-09 0.0114244 -6.47571e-09
-1.70469e-09 0.0114244 -6.45028e-09
-1.31428e-09 0.0114244 -6.38813e-09
-2.53618e-09 0.0114244 -6.47421e-09
-2.27094e-09 0.0114244 -6.53412e-09
-1.99527e-09 0.0114244 -6.46338e-09
-1.80155e-09 0.0114244 -6.3361e-09
-1.5512e-09 0.0114244 -6.37676e-09
-2.68593e-09 0.0114244 -6.59375e-09
-2.21729e-09 0.0114244 -6.61098e-09
-2.03848e-09 0.0114244 -6.32852e-09
-1.71661e-09 0.0114244 -6.4657e-09
-1.49542e-09 0.0114244 -6.24582e-09
-2.93963e-09 0.0128826 -7.40029e-09
-2.76566e-09 0.0128826 -7.18362e-09
-2.38419e-09 0.0128826 -6.84918e-09
-1.91331e-09 0.0128826 -7.11476e-09
-1.83582e-09 0.0128826 -7.39992e-09
-2.63575e-09 0.0128826 -7.10846e-09
-2.74368e-09 0.0128826 -7.02217e-09
-2.32211e-09 0.0128826 -7.06842e-09
-2.12193e-09 0.0128826 -7.04601e-09
-1.81198e-09 0.0128826 -7.16068e-09
-2.81632e-09 0.0128826 -7.06963e-09
-2.61487e-09 0.0128826 -7.14754e-09
-2.2836e-09 0.0128826 -7.12408e-09
-2.1508e-09 0.0128826 -7.01312e-09
-1.74269e-09 0.0128826 -7.09784e-09
-2.85447e-09 0.0128826 -7.30194e-09
-2.61888e-09 0.0128826 -7.10447e-09
-2.28962e-09 0.0128826 -7.07693e-09
-2.14986e-09 0.0128826 -7.04468e-09
-1.91331e-09 0.0128826 -7.16074e-09
-2.86102e-09 0.0128826 -7.24897e-09
-2.70782e-09 0.0128826 -7.12627e-09
-2.2769e-09 0.0128826 -7.32065e-09
-2.25082e-09 0.0128826 -7.08855e-09
-2.57492e-09 0.0128826 -7.08923e-09
-3.57889e-09 0.0144523 -7.90283e-09
-3.12453e-09 0.0144523 -7.75941e-09
-2.86847e-09 0.0144523 -7.71664e-09
-2.42144e-09 0.0144523 -7.88157e-09
-1.90735e-09 0.0144523 -8.03731e-09
-3.40928e-09 0.0144523 -7.82294e-09
-3.04431e-09 0.0144523 -7.81957e-09
-2.73655e-09 0.0144523 -7.72013e-09
-2.39485e-09 0.0144523 -7.7565e-09
-2.27839e-09 0.0144523 -7.80602e-09
-3.35574e-09 0.0144523 -7.97764e-09
-2.9996e-09 0.0144523 -7.80225e-09
-2.65799e-09 0.0144523 -7.74999e-09
-2.30372e-09 0.0144523 -7.66675e-09
-2.52631e-09 0.0144523 -7.76401e-09
-3.27426e-09 0.0144523 -7.81567e-09
-2.9901e-09 0.0144523 -7.83015e-09
-2.77407e-09 0.0144523 -7.64001e-09
-2.67356e-09 0.0144523 -7.90544e-09
-2.13863e-09 0.0144523 -8.01405e-09
-3.75807e-09 0.0144523 -7.92378e-09
-2.95639e-09 0.0144523 -7.8661e-09
-2.79972e-09 0.0144523 -7.89885e-09
-2.69054e-09 0.0144523 -7.70452e-09
-2.36947e-09 0.0144523 -7.80746e-09
-3.44962e-09 0.0161428 -8.27618e-09
-3.30508e-09 0.0161428 -8.54333e-09
-3.32594e-09 0.0161428 -8.3452e-09
-2.89879e-09 0.0161428 -8.4867e-09
-2.9028e-09 0.0161428 -8.62735e-09
-3.69283e-09 0.0161428 -8.59424e-09
-3.40966e-09 0.0161428 -8.43154e-09
-3.04407e-09 0.0161428 -8.64398e-09
-2.93255e-09 0.0161428 -8.57413e-09
-2.80738e-09 0.0161428 -8.66666e-09
-3.69549e-09 0.0161428 -8.55693e-09
-3.29614e-09 0.0161428 -8.50178e-09
-2.99886e-09 0.0161428 -8.45584e-09
-2.8789e-09 0.0161428 -8.78023e-09
-2.39443e-09 0.0161428 -8.80761e-09
-3.8147e-09 0.0161428 -8.57599e-09
-3.42131e-09 0.0161428 -8.51229e-09
-3.14133e-09 0.0161428 -8.4862e-09
-2.95192e-09 0.0161428 -8.70153e-09
-2.81334e-09 0.0161428 -8.64966e-09
-3.72101e-09 0.0161428 -8.60893e-09
-3.3617e-09 0.0161428 -8.63592e-09
-3.19481e-09 0.0161428 -8.63054e-09
-3.33786e-09 0.0161428 -8.6033e-09
-2.68123e-09 0.0161428 -8.52793e-09
-4.29451e-09 0.0179634 -9.5209e-09
-3.80874e-09 0.0179634 -9.16496e-09
-3.35276e-09 0.0179634 -9.63772e-09
-3.23943e-09 0.0179634 -9.49753e-09
-3.14713e-09 0.0179634 -9.36883e-09
-4.17573e-09 0.0179634 -9.36687e-09
-3.78042e-09 0.0179634 -9.35259e-09
-3.31625e-09 0.0179634 -9.18916e-09
-3.13567e-09 0.0179634 -9.47196e-09
-2.99513e-09 0.0179634 -9.65537e-09
-3.92614e-09 0.0179634 -9.25521e-09
-3.57865e-09 0.0179634 -9.34926e-09
-3.38405e-09 0.0179634 -9.3624e-09
-3.24696e-09 0.0179634 -9.59601e-09
-3.0323e-09 0.0179634 -9.84255e-09
-3.96142e-09 0.0179634 -9.38391e-09
-3.84561e-09 0.0179634 -9.29382e-09
-3.53605e-09 0.0179634 -9.4359e-09
-3.36319e-09 0.0179634 -9.58315e-09
-2.98619e-09 0.0179634 -9.6607e-09
-3.82066e-09 0.0179634 -9.47341e-09
-3.96073e-09 0.0179634 -9.55388e-09
-3.95629e-09 0.0179634 -9.43244e-09
-3.43764e-09 0.0179634 -9.63416e-09
-3.55574e-09 0.0179634 -9.37879e-09
-4.80395e-09 0.0199225 -1.00564e-08
-4.27544e-09 0.0199225 -1.00163e-08
-3.69549e-09 0.0199225 -9.71253e-09
-3.65826e-09 0.0199225 -1.04873e-08
-3.0756e-09 0.0199225 -1.06954e-08
-4.36282e-09 0.0199225 -1.01465e-08
-4.11979e-09 0.0199225 -9.97063e-09
-3.62866e-09 0.0199225 -1.02389e-08
-3.5516e-09 0.0199225 -1.02063e-08
-2.99513e-09 0.0199225 -1.05649e-08
-4.11272e-09 0.0199225 -1.01281e-08
-4.05982e-09 0.0199225 -1.00469e-08
-3.65972e-09 0.0199225 -1.0103e-08
-3.68357e-09 0.0199225 -1.03235e-08
-3.10466e-09 0.0199225 -1.03762e-08
-4.38089e-09 0.0199225 -1.04866e-08
-4.06707e-09 0.0199225 -1.01907e-08
-3.78117e-09 0.0199225 -1.0201e-08
-3.78638e-09 0.0199225 -1.02997e-08
-3.21418e-09 0.0199225 -1.03443e-08
-4.14848e-09 0.0199225 -1.02985e-08
-4.00543e-09 0.0199225 -1.04571e-08
-4.06828e-09 0.0199225 -1.03531e-08
-3.33326e-09 0.0199225 -1.01752e-08
-3.26633e-09 0.0199225 -1.06565e-08
-4.77637e-09 0.0220275 -1.08756e-08
-4.64916e-09 0.0220275 -1.08619e-08
-3.97116e-09 0.0220275 -1.11125e-08
-4.08888e-09 0.0220275 -1.10566e-08
-3.71538e-09 0.0220275 -1.15013e-08
-4.09471e-09 0.0220275 -1.08972e-08
-4.56254e-09 0.0220275 -1.09583e-08
-4.23193e-09 0.0220275 -1.10269e-08
-4.12464e-09 0.0220275 -1.11101e-08
-3.60005e-09 0.0220275 -1.11104e-08
-4.23938e-09 0.0220275 -1.13525e-08
-4.27663e-09 0.0220275 -1.12447e-08
-4.24758e-09 0.0220275 -1.11653e-08
-3.92465e-09 0.0220275 -1.10723e-08
-3.79682e-09 0.0220275 -1.11926e-08
-4.10774e-09 0.0220275 -1.13598e-08
-4.33906e-09 0.0220275 -1.15365e-08
-4.13286e-09 0.0220275 -1.12447e-08
-3.78385e-09 0.0220275 -1.13653e-08
-3.66385e-09 0.0220275 -1.11111e-08
-3.83481e-09 0.0220275 -1.11949e-08
-4.52285e-09 0.0220275 -1.15607e-08
-3.8953e-09 0.0220275 -1.12852e-08
-4.05547e-09 0.0220275 -1.13409e-08
-3.98755e-09 0.0220275 -1.11043e-08
-5.02355e-09 0.0242848 -1.19716e-08
-5.05447e-09 0.0242848 -1.21142e-08
-4.61973e-09 0.0242848 -1.19705e-08
-4.09782e-09 0.0242848 -1.22362e-08
-4.73261e-09 0.0242848 -1.19269e-08
-4.95803e-09 0.0242848 -1.2609e-08
-4.91228e-09 0.0242848 -1.24236e-08
-4.64916e-09 0.0242848 -1.22462e-08
-4.41968e-09 0.0242848 -1.21788e-08
-3.66569e-09 0.0242848 -1.24538e-08
-4.83394e-09 0.0242848 -1.24266e-08
-4.97848e-09 0.0242848 -1.2637e-08
-4.49279e-09 0.0242848 -1.24832e-08
-4.19845e-09 0.0242848 -1.22074e-08
-3.51153e-09 0.0242848 -1.22354e-08
-4.98757e-09 0.0242848 -1.2651e-08
-5.00679e-09 0.0242848 -1.2582e-08
-4.50686e-09 0.0242848 -1.25607e-08
-3.96792e-09 0.0242848 -1.25188e-08
-3.64333e-09 0.0242848 -1.22175e-08
-4.96209e-09 0.0242848 -1.23061e-08
-4.76486e-09 0.0242848 -1.26835e-08
-4.47929e-09 0.0242848 -1.23061e-08
-4.05051e-09 0.0242848 -1.23009e-08
-3.95775e-09 0.0242848 -1.23879e-08
-5.126e-09 0.0266988 -1.37048e-08
-5.42996e-09 0.0266988 -1.3344e-08
-4.89093e-09 0.0266988 -1.3956e-08
-4.57764e-09 0.0266988 -1.38053e-08
-3.61251e-09 0.0266988 -1.34692e-08
-5.63711e-09 0.0266988 -1.33293e-08
-5.22844e-09 0.0266988 -1.3775e-08
-4.84949e-09 0.0266988 -1.35973e-08
-4.40525e-09 0.0266988 -1.34844e-08
-4.04566e-09 0.0266988 -1.36072e-08
-5.7361e-09 0.0266988 -1.36901e-08
-5.17666e-09 0.0266988 -1.36247e-08
-4.78849e-09 0.0266988 -1.36912e-08
-4.31709e-09 0.0266988 -1.3832e-08
-3.65864e-09 0.0266988 -1.35583e-08
-5.49704e-09 0.0266988 -1.35853e-08
-5.3918e-09 0.0266988 -1.37262e-08
-4.81584e-09 0.0266988 -1.33764e-08
-4.23495e-09 0.0266988 -1.35126e-08
-3.30422e-09 0.0266988 -1.35772e-08
-5.68904e-09 0.0266988 -1.36554e-08
-5.21045e-09 0.0266988 -1.3768e-08
-4.7176e-09 0.0266988 -1.37072e-08
-4.36789e-09 0.0266988 -1.38482e-08
-3.3386e-09 0.0266988 -1.37812e-08
-6.70562e-09 0.0292718 -1.40866e-08
-5.29289e-09 0.0292718 -1.45042e-08
-5.08838e-09 0.0292718 -1.42106e-08
-4.8399e-09 0.0292718 -1.44026e-08
-4.19617e-09 0.0292718 -1.44084e-08
-5.6982e-09 0.0292718 -1.44376e-08
-5.65397e-09 0.0292718 -1.46079e-08
-5.13286e-09 0.0292718 -1.47562e-08
-4.70877e-09 0.0292718 -1.45918e-08
-3.64166e-09 0.0292718 -1.46361e-08
-5.99325e-09 0.0292718 -1.45854e-08
-5.84424e-09 0.0292718 -1.44557e-08
-5.03585e-09 0.0292718 -1.47386e-08
-4.44204e-09 0.0292718 -1.4771e-08
-3.83998e-09 0.0292718 -1.51123e-08
-6.40154e-09 0.0292718 -1.44529e-08
-5.73993e-09 0.0292718 -1.46952e-08
-5.09834e-09 0.0292718 -1.4433e-08
-4.47487e-09 0.0292718 -1.4706e-08
-3.92199e-09 0.0292718 -1.47053e-08
-6.21913e-09 0.0292718 -1.48535e-08
-5.90086e-09 0.0292718 -1.46612e-08
-5.19671e-09 0.0292718 -1.45517e-08
-4.78923e-09 0.0292718 -1.46802e-08
-3.50475e-09 0.0292718 -1.48043e-08
-5.88894e-09 0.0320028 -1.52349e-08
-5.88894e-09 0.0320028 -1.5926e-08
-4.8399e-09 0.0320028 -1.54478e-08
-5.07235e-09 0.0320028 -1.55842e-08
-4.21182e-09 0.0320028 -1.48158e-08
-6.44724e-09 0.0320028 -1.5676e-08
-5.89406e-09 0.0320028 -1.56004e-08
-5.19752e-09 0.0320028 -1.54957e-08
-4.79445e-09 0.0320028 -1.52878e-08
-4.06541e-09 0.0320028 -1.52866e-08
-6.64321e-09 0.0320028 -1.54163e-08
-5.88764e-09 0.0320028 -1.55166e-08
-5.26905e-09 0.0320028 -1.54547e-08
-4.71175e-09 0.0320028 -1.54656e-08
-3.67569e-09 0.0320028 -1.56624e-08
-7.07544e-09 0.0320028 -1.5264e-08
-5.90029e-09 0.0320028 -1.52938e-08
-5.35324e-09 0.0320028 -1.53705e-08
-4.95762e-09 0.0320028 -1.57646e-08
-3.41535e-09 0.0320028 -1.55292e-08
-6.68153e-09 0.0320028 -1.51664e-08
-6.38664e-09 0.0320028 -1.543e-08
-4.89151e-09 0.0320028 -1.55115e-08
-4.72962e-09 0.0320028 -1.54775e-08
-4.46526e-09 0.0320028 -1.51329e-08
-6.16415e-09 0.034887 -1.6728e-08
-5.73891e-09 0.034887 -1.69538e-08
-5.51678e-09 0.034887 -1.67017e-08
-4.51505e-09 0.034887 -1.62996e-08
-4.84558e-09 0.034887 -1.58062e-08
-6.63996e-09 0.034887 -1.63534e-08
-5.85541e-09 0.034887 -1.64371e-08
-5.38826e-09 0.034887 -1.64004e-08
-4.68492e-09 0.034887 -1.6039e-08
-4.43161e-09 0.034887 -1.59191e-08
-6.57141e-09 0.034887 -1.61786e-08
-6.12245e-09 0.034887 -1.60009e-08
-5.35375e-09 0.034887 -1.5914e-08
-5.11408e-09 0.034887 -1.60594e-08
-3.28571e-09 0.034887 -1.586e-08
-6.4373e-09 0.034887 -1.59974e-08
-6.05881e-09 0.034887 -1.60902e-08
-5.53587e-09 0.034887 -1.59183e-08
-4.81755e-09 0.034887 -1.58197e-08
-3.83854e-09 0.034887 -1.5923e-08