<?xml version="1.0"?>
<VTKFile type="UnstructuredGrid" version="0.1" byte_order="LittleEndian">
<UnstructuredGrid>
<Piece NumberOfPoints="1025" NumberOfCells="640">
<Points>
<DataArray type="Float32" NumberOfComponents="3" format="ascii">
0 0 0
0.025 0 0
0.05 0 0
0.075 0 0
0.1 0 0
0 0.025 0
0.025 0.025 0
0.05 0.025 0
0.075 0.025 0
0.1 0.025 0
0 0.05 0
0.025 0.05 0
0.05 0.05 0
0.075 0.05 0
0.1 0.05 0
0 0.075 0
0.025 0.075 0
0.05 0.075 0
0.075 0.075 0
0.1 0.075 0
0 0.1 0
0.025 0.1 0
0.05 0.1 0
0.075 0.1 0
0.1 0.1 0
0 0 0.025
0.025 0 0.025
0.05 0 0.025
0.075 0 0.025
0.1 0 0.025
0 0.025 0.025
0.025 0.025 0.025
0.05 0.025 0.025
0.075 0.025 0.025
0.1 0.025 0.025
0 0.05 0.025
0.025 0.05 0.025
0.05 0.05 0.025
0.075 0.05 0.025
0.1 0.05 0.025
0 0.075 0.025
0.025 0.075 0.025
0.05 0.075 0.025
0.075 0.075 0.025
0.1 0.075 0.025
0 0.1 0.025
0.025 0.1 0.025
0.05 0.1 0.025
0.075 0.1 0.025
0.1 0.1 0.025
0 0 0.05
0.025 0 0.05
0.05 0 0.05
0.075 0 0.05
0.1 0 0.05
0 0.025 0.05
0.025 0.025 0.05
0.05 0.025 0.05
0.075 0.025 0.05
0.1 0.025 0.05
0 0.05 0.05
0.025 0.05 0.05
0.05 0.05 0.05
0.075 0.05 0.05
0.1 0.05 0.05
0 0.075 0.05
0.025 0.075 0.05
0.05 0.075 0.05
0.075 0.075 0.05
0.1 0.075 0.05
0 0.1 0.05
0.025 0.1 0.05
0.05 0.1 0.05
0.075 0.1 0.05
0.1 0.1 0.05
0 0 0.075
0.025 0 0.075
0.05 0 0.075
0.075 0 0.075
0.1 0 0.075
0 0.025 0.075
0.025 0.025 0.075
0.05 0.025 0.075
0.075 0.025 0.075
0.1 0.025 0.075
0 0.05 0.075
0.025 0.05 0.075
0.05 0.05 0.075
0.075 0.05 0.075
0.1 0.05 0.075
0 0.075 0.075
0.025 0.075 0.075
0.05 0.075 0.075
0.075 0.075 0.075
0.1 0.075 0.075
0 0.1 0.075
0.025 0.1 0.075
0.05 0.1 0.075
0.075 0.1 0.075
0.1 0.1 0.075
0 0 0.1
0.025 0 0.1
0.05 0 0.1
0.075 0 0.1
0.1 0 0.1
0 0.025 0.1
0.025 0.025 0.1
0.05 0.025 0.1
0.075 0.025 0.1
0.1 0.025 0.1
0 0.05 0.1
0.025 0.05 0.1
0.05 0.05 0.1
0.075 0.05 0.1
0.1 0.05 0.1
0 0.075 0.1
0.025 0.075 0.1
0.05 0.075 0.1
0.075 0.075 0.1
0.1 0.075 0.1
0 0.1 0.1
0.025 0.1 0.1
0.05 0.1 0.1
0.075 0.1 0.1
0.1 0.1 0.1
0 0 0.125
0.025 0 0.125
0.05 0 0.125
0.075 0 0.125
0.1 0 0.125
0 0.025 0.125
0.025 0.025 0.125
0.05 0.025 0.125
0.075 0.025 0.125
0.1 0.025 0.125
0 0.05 0.125
0.025 0.05 0.125
0.05 0.05 0.125
0.075 0.05 0.125
0.1 0.05 0.125
0 0.075 0.125
0.025 0.075 0.125
0.05 0.075 0.125
0.075 0.075 0.125
0.1 0.075 0.125
0 0.1 0.125
0.025 0.1 0.125
0.05 0.1 0.125
0.075 0.1 0.125
0.1 0.1 0.125
0 0 0.15
0.025 0 0.15
0.05 0 0.15
0.075 0 0.15
0.1 0 0.15
0 0.025 0.15
0.025 0.025 0.15
0.05 0.025 0.15
0.075 0.025 0.15
0.1 0.025 0.15
0 0.05 0.15
0.025 0.05 0.15
0.05 0.05 0.15
0.075 0.05 0.15
0.1 0.05 0.15
0 0.075 0.15
0.025 0.075 0.15
0.05 0.075 0.15
0.075 0.075 0.15
0.1 0.075 0.15
0 0.1 0.15
0.025 0.1 0.15
0.05 0.1 0.15
0.075 0.1 0.15
0.1 0.1 0.15
0 0 0.175
0.025 0 0.175
0.05 0 0.175
0.075 0 0.175
0.1 0 0.175
0 0.025 0.175
0.025 0.025 0.175
0.05 0.025 0.175
0.075 0.025 0.175
0.1 0.025 0.175
0 0.05 0.175
0.025 0.05 0.175
0.05 0.05 0.175
0.075 0.05 0.175
0.1 0.05 0.175
0 0.075 0.175
0.025 0.075 0.175
0.05 0.075 0.175
0.075 0.075 0.175
0.1 0.075 0.175
0 0.1 0.175
0.025 0.1 0.175
0.05 0.1 0.175
0.075 0.1 0.175
0.1 0.1 0.175
0 0 0.2
0.025 0 0.2
0.05 0 0.2
0.075 0 0.2
0.1 0 0.2
0 0.025 0.2
0.025 0.025 0.2
0.05 0.025 0.2
0.075 0.025 0.2
0.1 0.025 0.2
0 0.05 0.2
0.025 0.05 0.2
0.05 0.05 0.2
0.075 0.05 0.2
0.1 0.05 0.2
0 0.075 0.2
0.025 0.075 0.2
0.05 0.075 0.2
0.075 0.075 0.2
0.1 0.075 0.2
0 0.1 0.2
0.025 0.1 0.2
0.05 0.1 0.2
0.075 0.1 0.2
0.1 0.1 0.2
0 0 0.225
0.025 0 0.225
0.05 0 0.225
0.075 0 0.225
0.1 0 0.225
0 0.025 0.225
0.025 0.025 0.225
0.05 0.025 0.225
0.075 0.025 0.225
0.1 0.025 0.225
0 0.05 0.225
0.025 0.05 0.225
0.05 0.05 0.225
0.075 0.05 0.225
0.1 0.05 0.225
0 0.075 0.225
0.025 0.075 0.225
0.05 0.075 0.225
0.075 0.075 0.225
0.1 0.075 0.225
0 0.1 0.225
0.025 0.1 0.225
0.05 0.1 0.225
0.075 0.1 0.225
0.1 0.1 0.225
0 0 0.25
0.025 0 0.25
0.05 0 0.25
0.075 0 0.25
0.1 0 0.25
0 0.025 0.25
0.025 0.025 0.25
0.05 0.025 0.25
0.075 0.025 0.25
0.1 0.025 0.25
0 0.05 0.25
0.025 0.05 0.25
0.05 0.05 0.25
0.075 0.05 0.25
0.1 0.05 0.25
0 0.075 0.25
0.025 0.075 0.25
0.05 0.075 0.25
0.075 0.075 0.25
0.1 0.075 0.25
0 0.1 0.25
0.025 0.1 0.25
0.05 0.1 0.25
0.075 0.1 0.25
0.1 0.1 0.25
0 0 0.275
0.025 0 0.275
0.05 0 0.275
0.075 0 0.275
0.1 0 0.275
0 0.025 0.275
0.025 0.025 0.275
0.05 0.025 0.275
0.075 0.025 0.275
0.1 0.025 0.275
0 0.05 0.275
0.025 0.05 0.275
0.05 0.05 0.275
0.075 0.05 0.275
0.1 0.05 0.275
0 0.075 0.275
0.025 0.075 0.275
0.05 0.075 0.275
0.075 0.075 0.275
0.1 0.075 0.275
0 0.1 0.275
0.025 0.1 0.275
0.05 0.1 0.275
0.075 0.1 0.275
0.1 0.1 0.275
0 0 0.3
0.025 0 0.3
0.05 0 0.3
0.075 0 0.3
0.1 0 0.3
0 0.025 0.3
0.025 0.025 0.3
0.05 0.025 0.3
0.075 0.025 0.3
0.1 0.025 0.3
0 0.05 0.3
0.025 0.05 0.3
0.05 0.05 0.3
0.075 0.05 0.3
0.1 0.05 0.3
0 0.075 0.3
0.025 0.075 0.3
0.05 0.075 0.3
0.075 0.075 0.3
0.1 0.075 0.3
0 0.1 0.3
0.025 0.1 0.3
0.05 0.1 0.3
0.075 0.1 0.3
0.1 0.1 0.3
0 0 0.325
0.025 0 0.325
0.05 0 0.325
0.075 0 0.325
0.1 0 0.325
0 0.025 0.325
0.025 0.025 0.325
0.05 0.025 0.325
0.075 0.025 0.325
0.1 0.025 0.325
0 0.05 0.325
0.025 0.05 0.325
0.05 0.05 0.325
0.075 0.05 0.325
0.1 0.05 0.325
0 0.075 0.325
0.025 0.075 0.325
0.05 0.075 0.325
0.075 0.075 0.325
0.1 0.075 0.325
0 0.1 0.325
0.025 0.1 0.325
0.05 0.1 0.325
0.075 0.1 0.325
0.1 0.1 0.325
0 0 0.35
0.025 0 0.35
0.05 0 0.35
0.075 0 0.35
0.1 0 0.35
0 0.025 0.35
0.025 0.025 0.35
0.05 0.025 0.35
0.075 0.025 0.35
0.1 0.025 0.35
0 0.05 0.35
0.025 0.05 0.35
0.05 0.05 0.35
0.075 0.05 0.35
0.1 0.05 0.35
0 0.075 0.35
0.025 0.075 0.35
0.05 0.075 0.35
0.075 0.075 0.35
0.1 0.075 0.35
0 0.1 0.35
0.025 0.1 0.35
0.05 0.1 0.35
0.075 0.1 0.35
0.1 0.1 0.35
0 0 0.375
0.025 0 0.375
0.05 0 0.375
0.075 0 0.375
0.1 0 0.375
0 0.025 0.375
0.025 0.025 0.375
0.05 0.025 0.375
0.075 0.025 0.375
0.1 0.025 0.375
0 0.05 0.375
0.025 0.05 0.375
0.05 0.05 0.375
0.075 0.05 0.375
0.1 0.05 0.375
0 0.075 0.375
0.025 0.075 0.375
0.05 0.075 0.375
0.075 0.075 0.375
0.1 0.075 0.375
0 0.1 0.375
0.025 0.1 0.375
0.05 0.1 0.375
0.075 0.1 0.375
0.1 0.1 0.375
0 0 0.4
0.025 0 0.4
0.05 0 0.4
0.075 0 0.4
0.1 0 0.4
0 0.025 0.4
0.025 0.025 0.4
0.05 0.025 0.4
0.075 0.025 0.4
0.1 0.025 0.4
0 0.05 0.4
0.025 0.05 0.4
0.05 0.05 0.4
0.075 0.05 0.4
0.1 0.05 0.4
0 0.075 0.4
0.025 0.075 0.4
0.05 0.075 0.4
0.075 0.075 0.4
0.1 0.075 0.4
0 0.1 0.4
0.025 0.1 0.4
0.05 0.1 0.4
0.075 0.1 0.4
0.1 0.1 0.4
0 0 0.425
0.025 0 0.425
0.05 0 0.425
0.075 0 0.425
0.1 0 0.425
0 0.025 0.425
0.025 0.025 0.425
0.05 0.025 0.425
0.075 0.025 0.425
0.1 0.025 0.425
0 0.05 0.425
0.025 0.05 0.425
0.05 0.05 0.425
0.075 0.05 0.425
0.1 0.05 0.425
0 0.075 0.425
0.025 0.075 0.425
0.05 0.075 0.425
0.075 0.075 0.425
0.1 0.075 0.425
0 0.1 0.425
0.025 0.1 0.425
0.05 0.1 0.425
0.075 0.1 0.425
0.1 0.1 0.425
0 0 0.45
0.025 0 0.45
0.05 0 0.45
0.075 0 0.45
0.1 0 0.45
0 0.025 0.45
0.025 0.025 0.45
0.05 0.025 0.45
0.075 0.025 0.45
0.1 0.025 0.45
0 0.05 0.45
0.025 0.05 0.45
0.05 0.05 0.45
0.075 0.05 0.45
0.1 0.05 0.45
0 0.075 0.45
0.025 0.075 0.45
0.05 0.075 0.45
0.075 0.075 0.45
0.1 0.075 0.45
0 0.1 0.45
0.025 0.1 0.45
0.05 0.1 0.45
0.075 0.1 0.45
0.1 0.1 0.45
0 0 0.475
0.025 0 0.475
0.05 0 0.475
0.075 0 0.475
0.1 0 0.475
0 0.025 0.475
0.025 0.025 0.475
0.05 0.025 0.475
0.075 0.025 0.475
0.1 0.025 0.475
0 0.05 0.475
0.025 0.05 0.475
0.05 0.05 0.475
0.075 0.05 0.475
0.1 0.05 0.475
0 0.075 0.475
0.025 0.075 0.475
0.05 0.075 0.475
0.075 0.075 0.475
0.1 0.075 0.475
0 0.1 0.475
0.025 0.1 0.475
0.05 0.1 0.475
0.075 0.1 0.475
0.1 0.1 0.475
0 0 0.5
0.025 0 0.5
0.05 0 0.5
0.075 0 0.5
0.1 0 0.5
0 0.025 0.5
0.025 0.025 0.5
0.05 0.025 0.5
0.075 0.025 0.5
0.1 0.025 0.5
0 0.05 0.5
0.025 0.05 0.5
0.05 0.05 0.5
0.075 0.05 0.5
0.1 0.05 0.5
0 0.075 0.5
0.025 0.075 0.5
0.05 0.075 0.5
0.075 0.075 0.5
0.1 0.075 0.5
0 0.1 0.5
0.025 0.1 0.5
0.05 0.1 0.5
0.075 0.1 0.5
0.1 0.1 0.5
0 0 0.525
0.025 0 0.525
0.05 0 0.525
0.075 0 0.525
0.1 0 0.525
0 0.025 0.525
0.025 0.025 0.525
0.05 0.025 0.525
0.075 0.025 0.525
0.1 0.025 0.525
0 0.05 0.525
0.025 0.05 0.525
0.05 0.05 0.525
0.075 0.05 0.525
0.1 0.05 0.525
0 0.075 0.525
0.025 0.075 0.525
0.05 0.075 0.525
0.075 0.075 0.525
0.1 0.075 0.525
0 0.1 0.525
0.025 0.1 0.525
0.05 0.1 0.525
0.075 0.1 0.525
0.1 0.1 0.525
0 0 0.55
0.025 0 0.55
0.05 0 0.55
0.075 0 0.55
0.1 0 0.55
0 0.025 0.55
0.025 0.025 0.55
0.05 0.025 0.55
0.075 0.025 0.55
0.1 0.025 0.55
0 0.05 0.55
0.025 0.05 0.55
0.05 0.05 0.55
0.075 0.05 0.55
0.1 0.05 0.55
0 0.075 0.55
0.025 0.075 0.55
0.05 0.075 0.55
0.075 0.075 0.55
0.1 0.075 0.55
0 0.1 0.55
0.025 0.1 0.55
0.05 0.1 0.55
0.075 0.1 0.55
0.1 0.1 0.55
0 0 0.575
0.025 0 0.575
0.05 0 0.575
0.075 0 0.575
0.1 0 0.575
0 0.025 0.575
0.025 0.025 0.575
0.05 0.025 0.575
0.075 0.025 0.575
0.1 0.025 0.575
0 0.05 0.575
0.025 0.05 0.575
0.05 0.05 0.575
0.075 0.05 0.575
0.1 0.05 0.575
0 0.075 0.575
0.025 0.075 0.575
0.05 0.075 0.575
0.075 0.075 0.575
0.1 0.075 0.575
0 0.1 0.575
0.025 0.1 0.575
0.05 0.1 0.575
0.075 0.1 0.575
0.1 0.1 0.575
0 0 0.6
0.025 0 0.6
0.05 0 0.6
0.075 0 0.6
0.1 0 0.6
0 0.025 0.6
0.025 0.025 0.6
0.05 0.025 0.6
0.075 0.025 0.6
0.1 0.025 0.6
0 0.05 0.6
0.025 0.05 0.6
0.05 0.05 0.6
0.075 0.05 0.6
0.1 0.05 0.6
0 0.075 0.6
0.025 0.075 0.6
0.05 0.075 0.6
0.075 0.075 0.6
0.1 0.075 0.6
0 0.1 0.6
0.025 0.1 0.6
0.05 0.1 0.6
0.075 0.1 0.6
0.1 0.1 0.6
0 0 0.625
0.025 0 0.625
0.05 0 0.625
0.075 0 0.625
0.1 0 0.625
0 0.025 0.625
0.025 0.025 0.625
0.05 0.025 0.625
0.075 0.025 0.625
0.1 0.025 0.625
0 0.05 0.625
0.025 0.05 0.625
0.05 0.05 0.625
0.075 0.05 0.625
0.1 0.05 0.625
0 0.075 0.625
0.025 0.075 0.625
0.05 0.075 0.625
0.075 0.075 0.625
0.1 0.075 0.625
0 0.1 0.625
0.025 0.1 0.625
0.05 0.1 0.625
0.075 0.1 0.625
0.1 0.1 0.625
0 0 0.65
0.025 0 0.65
0.05 0 0.65
0.075 0 0.65
0.1 0 0.65
0 0.025 0.65
0.025 0.025 0.65
0.05 0.025 0.65
0.075 0.025 0.65
0.1 0.025 0.65
0 0.05 0.65
0.025 0.05 0.65
0.05 0.05 0.65
0.075 0.05 0.65
0.1 0.05 0.65
0 0.075 0.65
0.025 0.075 0.65
0.05 0.075 0.65
0.075 0.075 0.65
0.1 0.075 0.65
0 0.1 0.65
0.025 0.1 0.65
0.05 0.1 0.65
0.075 0.1 0.65
0.1 0.1 0.65
0 0 0.675
0.025 0 0.675
0.05 0 0.675
0.075 0 0.675
0.1 0 0.675
[...]
<PointData Vectors="Displacement">
<DataArray type="Float32" Name="Displacement" NumberOfComponents="3" format="ascii">
0 0 0
0 0 0
0 0 0
0 0 0
0 0 0
0 0 0
0 0 0
0 0 0
0 0 0
0 0 0
0 0 0
0 0 0
0 0 0
0 0 0
0 0 0
0 0 0
0 0 0
0 0 0
0 0 0
0 0 0
0 0 0
0 0 0
0 0 0
0 0 0
0 0 0
6.21724e-10 0.00121337 8.92621e-10
4.46916e-10 0.00121337 8.753e-10
3.51889e-10 0.00121337 8.86371e-10
2.52194e-10 0.00121337 9.21437e-10
7.00353e-11 0.00121337 8.83113e-10
6.29445e-10 0.00121337 8.85396e-10
4.52144e-10 0.00121337 8.86614e-10
3.56127e-10 0.00121337 8.91531e-10
2.41153e-10 0.00121337 9.00716e-10
9.54963e-11 0.00121337 8.94495e-10
6.28025e-10 0.00121337 8.88796e-10
4.59076e-10 0.00121337 8.90344e-10
3.45787e-10 0.00121337 8.82943e-10
2.52279e-10 0.00121337 9.01652e-10
9.73323e-11 0.00121337 8.90245e-10
6.54286e-10 0.00121337 9.07121e-10
4.5443e-10 0.00121337 8.80733e-10
3.59568e-10 0.00121337 9.08145e-10
2.51321e-10 0.00121337 9.0003e-10
5.4476e-11 0.00121337 9.03696e-10
6.6395e-10 0.00121337 8.94271e-10
4.56059e-10 0.00121337 9.227e-10
3.58391e-10 0.00121337 8.82797e-10
2.38073e-10 0.00121337 8.97359e-10
7.77814e-11 0.00121337 9.28217e-10
1.01601e-09 0.00242697 1.78568e-09
8.59208e-10 0.00242697 1.82821e-09
7.20313e-10 0.00242697 1.851e-09
5.23436e-10 0.00242696 1.81499e-09
3.03649e-10 0.00242697 1.78038e-09
1.02257e-09 0.00242697 1.81898e-09
8.66922e-10 0.00242697 1.82144e-09
7.11458e-10 0.00242697 1.85153e-09
5.40076e-10 0.00242697 1.81627e-09
3.62101e-10 0.00242696 1.83535e-09
1.03765e-09 0.00242697 1.8111e-09
8.74006e-10 0.00242697 1.81293e-09
7.03869e-10 0.00242696 1.80237e-09
5.2376e-10 0.00242697 1.84837e-09
3.76366e-10 0.00242696 1.84816e-09
1.06997e-09 0.00242696 1.8249e-09
8.56172e-10 0.00242696 1.81386e-09
7.19701e-10 0.00242696 1.82733e-09
5.11951e-10 0.00242696 1.82952e-09
3.78348e-10 0.00242696 1.82573e-09
1.08081e-09 0.00242696 1.83489e-09
8.73868e-10 0.00242696 1.80862e-09
6.83175e-10 0.00242696 1.84152e-09
5.45323e-10 0.00242696 1.85629e-09
2.85786e-10 0.00242696 1.80336e-09
1.43878e-09 0.003641 2.84091e-09
1.22296e-09 0.003641 2.76986e-09
1.04516e-09 0.003641 2.81183e-09
7.74046e-10 0.003641 2.78201e-09
7.36569e-10 0.003641 2.78465e-09
1.38171e-09 0.003641 2.78094e-09
1.21815e-09 0.003641 2.78963e-09
1.03427e-09 0.003641 2.77269e-09
8.48361e-10 0.003641 2.7796e-09
7.15796e-10 0.003641 2.76512e-09
1.40306e-09 0.003641 2.77492e-09
1.19667e-09 0.003641 2.77263e-09
1.06089e-09 0.003641 2.78556e-09
8.89948e-10 0.003641 2.78792e-09
6.6245e-10 0.003641 2.76918e-09
1.40282e-09 0.003641 2.75044e-09
1.23117e-09 0.003641 2.77312e-09
1.03423e-09 0.003641 2.76788e-09
8.46147e-10 0.003641 2.78356e-09
6.39431e-10 0.003641 2.77093e-09
1.43984e-09 0.003641 2.73496e-09
1.22393e-09 0.003641 2.76713e-09
1.05594e-09 0.003641 2.74865e-09
8.06988e-10 0.003641 2.73387e-09
6.70738e-10 0.003641 2.77015e-09
1.66355e-09 0.00485571 3.73526e-09
1.53656e-09 0.00485571 3.71642e-09
1.34229e-09 0.00485571 3.69531e-09
1.20935e-09 0.0048557 3.7344e-09
1.11219e-09 0.0048557 3.75147e-09
1.68092e-09 0.00485571 3.71745e-09
1.51419e-09 0.00485571 3.71927e-09
1.37776e-09 0.00485571 3.6833e-09
1.16972e-09 0.0048557 3.71447e-09
1.09317e-09 0.0048557 3.70833e-09
1.67327e-09 0.0048557 3.70193e-09
1.53494e-09 0.0048557 3.69848e-09
1.39631e-09 0.0048557 3.71778e-09
1.19319e-09 0.0048557 3.70534e-09
1.06795e-09 0.0048557 3.66442e-09
1.74853e-09 0.0048557 3.67039e-09
1.53929e-09 0.0048557 3.69853e-09
1.37796e-09 0.0048557 3.66953e-09
1.18724e-09 0.0048557 3.69217e-09
1.06385e-09 0.0048557 3.73119e-09
1.75908e-09 0.0048557 3.66368e-09
1.58419e-09 0.0048557 3.67377e-09
1.38615e-09 0.0048557 3.63696e-09
1.19252e-09 0.0048557 3.76854e-09
9.99904e-10 0.0048557 3.69191e-09
1.96198e-09 0.00607129 4.58534e-09
1.76317e-09 0.00607129 4.66121e-09
1.67519e-09 0.00607129 4.59599e-09
1.49169e-09 0.00607128 4.61313e-09
1.53449e-09 0.00607128 4.64176e-09
1.9895e-09 0.00607129 4.66049e-09
1.82895e-09 0.00607129 4.62176e-09
1.6762e-09 0.00607129 4.58965e-09
1.54205e-09 0.00607128 4.63454e-09
1.35291e-09 0.00607128 4.65029e-09
1.99786e-09 0.00607129 4.59609e-09
1.80397e-09 0.00607128 4.65544e-09
1.72428e-09 0.00607128 4.64583e-09
1.50045e-09 0.00607128 4.65189e-09
1.36143e-09 0.00607128 4.7168e-09
2.03357e-09 0.00607128 4.64396e-09
1.87046e-09 0.00607128 4.64152e-09
1.72397e-09 0.00607128 4.69651e-09
1.50084e-09 0.00607128 4.69786e-09
1.41946e-09 0.00607128 4.64716e-09
1.95729e-09 0.00607128 4.58102e-09
1.91787e-09 0.00607128 4.588e-09
1.7637e-09 0.00607128 4.62673e-09
1.563e-09 0.00607128 4.6184e-09
1.37733e-09 0.00607128 4.76585e-09
2.30812e-09 0.00728795 5.61394e-09
2.04494e-09 0.00728795 5.47946e-09
2.00033e-09 0.00728795 5.55199e-09
1.83654e-09 0.00728795 5.48032e-09
1.71594e-09 0.00728795 5.59908e-09
2.13716e-09 0.00728795 5.51432e-09
2.06751e-09 0.00728795 5.49479e-09
1.99038e-09 0.00728795 5.48694e-09
1.83299e-09 0.00728795 5.53949e-09
1.77423e-09 0.00728795 5.55992e-09
2.2381e-09 0.00728795 5.576e-09
2.12221e-09 0.00728795 5.49156e-09
2.00036e-09 0.00728795 5.49736e-09
1.83304e-09 0.00728795 5.56304e-09
1.64717e-09 0.00728795 5.53646e-09
2.29144e-09 0.00728795 5.50377e-09
2.13081e-09 0.00728795 5.48615e-09
2.02027e-09 0.00728795 5.56234e-09
1.87661e-09 0.00728795 5.52806e-09
1.6721e-09 0.00728795 5.5761e-09
2.33265e-09 0.00728795 5.52237e-09
2.12871e-09 0.00728795 5.54329e-09
2.0673e-09 0.00728795 5.5728e-09
1.84373e-09 0.00728795 5.61933e-09
1.77045e-09 0.00728795 5.529e-09
2.38734e-09 0.00850591 6.44925e-09
2.36436e-09 0.00850591 6.43936e-09
2.22499e-09 0.00850591 6.45625e-09
2.2415e-09 0.00850591 6.30247e-09
1.89118e-09 0.00850591 6.39401e-09
2.46279e-09 0.00850591 6.37166e-09
2.36294e-09 0.00850591 6.36571e-09
2.25313e-09 0.00850591 6.40681e-09
2.19423e-09 0.00850591 6.40352e-09
1.97128e-09 0.00850591 6.37217e-09
2.46922e-09 0.00850591 6.40025e-09
2.33892e-09 0.00850591 6.36787e-09
2.26817e-09 0.00850591 6.39689e-09
2.16255e-09 0.00850591 6.36814e-09
2.06794e-09 0.00850591 6.35189e-09
2.48445e-09 0.00850591 6.34334e-09
2.3875e-09 0.00850591 6.34881e-09
2.28719e-09 0.00850591 6.27423e-09
2.15273e-09 0.00850591 6.34474e-09
2.07086e-09 0.00850591 6.31279e-09
2.45863e-09 0.00850591 6.50934e-09
2.43491e-09 0.00850591 6.40888e-09
2.29188e-09 0.00850591 6.35214e-09
2.20303e-09 0.00850591 6.40394e-09
1.9317e-09 0.00850591 6.43728e-09
2.88467e-09 0.00972536 7.10868e-09
2.57961e-09 0.00972536 7.2646e-09
2.63101e-09 0.00972536 7.11292e-09
2.29782e-09 0.00972536 7.22225e-09
2.34298e-09 0.00972536 7.09533e-09
2.67427e-09 0.00972536 7.1896e-09
2.64034e-09 0.00972536 7.21841e-09
2.5509e-09 0.00972536 7.22272e-09
2.34512e-09 0.00972536 7.14969e-09
2.44064e-09 0.00972536 7.10445e-09
2.6141e-09 0.00972536 7.18674e-09
2.58195e-09 0.00972536 7.18412e-09
2.6165e-09 0.00972536 7.16838e-09
2.30835e-09 0.00972535 7.15698e-09
2.51638e-09 0.00972536 7.13903e-09
2.60361e-09 0.00972536 7.21446e-09
2.58805e-09 0.00972535 7.30789e-09
2.53058e-09 0.00972536 7.11017e-09
2.43459e-09 0.00972535 7.1674e-09
2.36663e-09 0.00972535 7.1102e-09
2.95188e-09 0.00972536 7.31332e-09
2.47036e-09 0.00972536 7.14604e-09
2.55119e-09 0.00972535 7.24823e-09
2.47259e-09 0.00972535 7.11401e-09
2.48043e-09 0.00972535 7.16119e-09
2.97209e-09 0.0109465 7.79679e-09
2.9074e-09 0.0109465 7.63344e-09
2.79444e-09 0.0109465 7.8384e-09
2.69114e-09 0.0109465 7.74705e-09
2.50722e-09 0.0109465 7.84028e-09
2.9923e-09 0.0109465 7.74325e-09
2.82276e-09 0.0109465 7.81373e-09
2.76489e-09 0.0109465 7.81523e-09
2.62885e-09 0.0109465 7.72495e-09
2.47853e-09 0.0109465 7.79173e-09
2.78174e-09 0.0109465 7.82554e-09
2.77393e-09 0.0109465 7.81185e-09
2.81352e-09 0.0109465 7.67753e-09
2.64742e-09 0.0109465 7.78081e-09
2.55147e-09 0.0109465 7.90873e-09
2.86675e-09 0.0109465 7.79879e-09
2.76193e-09 0.0109465 7.85561e-09
2.81636e-09 0.0109465 7.84812e-09
2.7728e-09 0.0109465 7.87126e-09
2.68911e-09 0.0109465 7.84159e-09
2.73866e-09 0.0109465 7.88175e-09
2.86342e-09 0.0109465 7.91166e-09
2.81919e-09 0.0109465 8.01045e-09
2.8001e-09 0.0109465 7.94321e-09
2.62854e-09 0.0109465 7.8027e-09
2.95255e-09 0.0121694 8.50427e-09
3.02279e-09 0.0121694 8.38673e-09
3.03522e-09 0.0121694 8.13487e-09
2.76489e-09 0.0121694 8.27702e-09
2.81235e-09 0.0121694 8.36877e-09
2.86771e-09 0.0121694 8.36443e-09
3.03428e-09 0.0121694 8.34657e-09
3.01418e-09 0.0121694 8.32994e-09
2.81113e-09 0.0121694 8.33748e-09
2.89328e-09 0.0121694 8.29675e-09
2.81875e-09 0.0121694 8.3068e-09
2.91947e-09 0.0121694 8.3963e-09
2.89643e-09 0.0121694 8.3792e-09
2.9556e-09 0.0121694 8.43967e-09
3.04151e-09 0.0121694 8.33595e-09
2.8974e-09 0.0121694 8.35107e-09
2.95868e-09 0.0121694 8.40174e-09
2.99761e-09 0.0121694 8.4554e-09
2.85289e-09 0.0121694 8.40447e-09
2.88149e-09 0.0121694 8.46478e-09
3.28189e-09 0.0121694 8.53406e-09
2.97267e-09 0.0121694 8.37267e-09
3.02656e-09 0.0121694 8.51544e-09
2.6982e-09 0.0121694 8.34824e-09
3.12091e-09 0.0121694 8.44258e-09
3.13138e-09 0.0133944 8.9471e-09
3.20273e-09 0.0133944 8.952e-09
3.15601e-09 0.0133944 8.93142e-09
3.09894e-09 0.0133944 8.9638e-09
2.95667e-09 0.0133944 9.0915e-09
3.24372e-09 0.0133944 9.03358e-09
3.03088e-09 0.0133944 8.88163e-09
3.11939e-09 0.0133944 8.89549e-09
3.03019e-09 0.0133944 8.96857e-09
2.99172e-09 0.0133944 9.00335e-09
2.86757e-09 0.0133944 8.92143e-09
3.16507e-09 0.0133944 9.00272e-09
3.03443e-09 0.0133944 9.01268e-09
2.99806e-09 0.0133944 8.88766e-09
3.19871e-09 0.0133944 9.04296e-09
3.22674e-09 0.0133944 9.00767e-09
3.05635e-09 0.0133944 8.97986e-09
3.03145e-09 0.0133944 9.0129e-09
2.97465e-09 0.0133944 9.13896e-09
3.22331e-09 0.0133944 9.03202e-09
3.07886e-09 0.0133944 8.84282e-09
3.27043e-09 0.0133944 8.90724e-09
2.96085e-09 0.0133944 8.80947e-09
3.17299e-09 0.0133944 8.97831e-09
2.67991e-09 0.0133944 9.2095e-09
3.42956e-09 0.0146216 9.35838e-09
3.25429e-09 0.0146216 9.50377e-09
3.2482e-09 0.0146216 9.55131e-09
3.08141e-09 0.0146216 9.4079e-09
3.26574e-09 0.0146216 9.34471e-09
3.23931e-09 0.0146216 9.60084e-09
3.25647e-09 0.0146216 9.53255e-09
3.12491e-09 0.0146216 9.56794e-09
3.04293e-09 0.0146216 9.54013e-09
2.93793e-09 0.0146216 9.49634e-09
3.37655e-09 0.0146216 9.5892e-09
3.12843e-09 0.0146216 9.50044e-09
3.21858e-09 0.0146216 9.40919e-09
2.98505e-09 0.0146216 9.57184e-09
3.15603e-09 0.0146216 9.56773e-09
3.42801e-09 0.0146216 9.56313e-09
3.13368e-09 0.0146216 9.56012e-09
3.20578e-09 0.0146216 9.51578e-09
2.98594e-09 0.0146216 9.57711e-09
2.88562e-09 0.0146216 9.6036e-09
3.68511e-09 0.0146216 9.61892e-09
3.15485e-09 0.0146216 9.70778e-09
3.17054e-09 0.0146216 9.37896e-09
2.98022e-09 0.0146216 9.73056e-09
2.65114e-09 0.0146216 9.57608e-09
3.24842e-09 0.0158511 1.00284e-08
3.54564e-09 0.0158511 1.02299e-08
3.14869e-09 0.0158511 9.94565e-09
2.96671e-09 0.0158511 9.98523e-09
3.59451e-09 0.0158511 9.82594e-09
3.49787e-09 0.0158511 9.9966e-09
3.25849e-09 0.0158511 1.01253e-08
3.19272e-09 0.0158511 1.00324e-08
3.1981e-09 0.0158511 1.00356e-08
3.08808e-09 0.0158511 1.00982e-08
3.33757e-09 0.0158511 9.99348e-09
3.25637e-09 0.0158511 1.00507e-08
3.29664e-09 0.0158511 1.00785e-08
3.18866e-09 0.0158511 1.00431e-08
2.79016e-09 0.0158511 1.00201e-08
3.3838e-09 0.0158511 1.01932e-08
3.40197e-09 0.0158511 1.00973e-08
3.25872e-09 0.0158511 1.01088e-08
3.02651e-09 0.0158511 9.99089e-09
3.09124e-09 0.0158511 9.98689e-09
3.23327e-09 0.0158511 1.01453e-08
3.42108e-09 0.0158511 1.02828e-08
3.12635e-09 0.0158511 1.03408e-08
3.07991e-09 0.0158511 1.01083e-08
3.20639e-09 0.0158511 1.00327e-08
4.02749e-09 0.017083 1.06114e-08
3.41955e-09 0.017083 1.05183e-08
3.22512e-09 0.017083 1.0399e-08
3.31035e-09 0.017083 1.02639e-08
2.8002e-09 0.017083 1.07627e-08
3.55061e-09 0.017083 1.05498e-08
3.46792e-09 0.017083 1.04149e-08
3.27991e-09 0.017083 1.04559e-08
3.17488e-09 0.017083 1.04355e-08
3.16658e-09 0.017083 1.04734e-08
3.41165e-09 0.017083 1.04946e-08
3.47319e-09 0.017083 1.05027e-08
3.41201e-09 0.017083 1.06376e-08
3.17674e-09 0.017083 1.04542e-08
3.11064e-09 0.017083 1.03882e-08
3.4571e-09 0.017083 1.06826e-08
3.39598e-09 0.017083 1.05349e-08
3.40742e-09 0.017083 1.06746e-08
3.12818e-09 0.017083 1.04173e-08
3.11927e-09 0.017083 1.0506e-08
3.46266e-09 0.017083 1.07906e-08
3.41543e-09 0.017083 1.06821e-08
3.31902e-09 0.017083 1.06501e-08
3.18645e-09 0.017083 1.06886e-08
3.14432e-09 0.017083 1.07127e-08
3.23979e-09 0.0183175 1.09328e-08
3.58894e-09 0.0183174 1.08613e-08
3.29798e-09 0.0183174 1.07513e-08
3.33577e-09 0.0183174 1.06042e-08
3.34013e-09 0.0183174 1.07293e-08
3.50348e-09 0.0183174 1.0823e-08
3.41414e-09 0.0183174 1.0974e-08
3.3759e-09 0.0183174 1.08576e-08
3.29745e-09 0.0183174 1.07715e-08
3.36009e-09 0.0183174 1.06852e-08
3.66641e-09 0.0183174 1.09761e-08
3.45491e-09 0.0183174 1.07936e-08
3.35714e-09 0.0183174 1.08785e-08
3.2261e-09 0.0183174 1.0794e-08
3.39268e-09 0.0183174 1.06127e-08
3.81008e-09 0.0183174 1.08857e-08
3.44745e-09 0.0183174 1.09569e-08
3.3412e-09 0.0183174 1.09772e-08
3.21493e-09 0.0183174 1.07616e-08
3.26014e-09 0.0183174 1.09261e-08
3.82918e-09 0.0183174 1.09134e-08
3.29221e-09 0.0183174 1.07422e-08
3.33521e-09 0.0183174 1.0834e-08
2.98203e-09 0.0183174 1.12217e-08
3.44883e-09 0.0183174 1.10388e-08
2.85412e-09 0.0195546 1.15052e-08
3.55521e-09 0.0195546 1.12442e-08
3.47084e-09 0.0195546 1.14583e-08
3.2873e-09 0.0195546 1.10588e-08
3.46077e-09 0.0195546 1.10048e-08
3.23644e-09 0.0195546 1.12577e-08
3.4203e-09 0.0195546 1.11892e-08
3.4459e-09 0.0195546 1.1325e-08
3.3279e-09 0.0195546 1.10566e-08
3.50172e-09 0.0195546 1.11643e-08
3.56708e-09 0.0195546 1.12117e-08
3.42872e-09 0.0195546 1.12733e-08
3.49502e-09 0.0195546 1.12283e-08
3.26578e-09 0.0195546 1.11491e-08
3.34264e-09 0.0195546 1.13101e-08
3.62197e-09 0.0195546 1.10866e-08
3.40686e-09 0.0195546 1.10484e-08
3.39138e-09 0.0195546 1.12275e-08
3.2323e-09 0.0195546 1.13715e-08
3.6242e-09 0.0195546 1.12105e-08
3.31135e-09 0.0195546 1.11131e-08
3.5996e-09 0.0195546 1.10838e-08
3.28879e-09 0.0195546 1.09806e-08
3.47998e-09 0.0195546 1.12865e-08
3.22621e-09 0.0195546 1.13637e-08
3.32413e-09 0.0207944 1.18174e-08
3.29061e-09 0.0207944 1.18189e-08
3.49728e-09 0.0207944 1.18949e-08
3.04006e-09 0.0207944 1.16556e-08
3.1136e-09 0.0207944 1.16619e-08
3.54333e-09 0.0207944 1.1689e-08
3.32312e-09 0.0207944 1.16547e-08
3.43029e-09 0.0207944 1.16971e-08
3.22356e-09 0.0207944 1.17036e-08
3.31152e-09 0.0207944 1.16358e-08
3.80835e-09 0.0207944 1.15181e-08
3.37693e-09 0.0207944 1.12858e-08
3.36033e-09 0.0207944 1.14678e-08
3.4572e-09 0.0207944 1.16066e-08
3.34116e-09 0.0207944 1.16474e-08
3.74971e-09 0.0207944 1.13763e-08
3.45158e-09 0.0207944 1.13137e-08
3.40656e-09 0.0207944 1.13924e-08
3.47673e-09 0.0207944 1.14532e-08
2.96874e-09 0.0207944 1.17783e-08
3.85421e-09 0.0207944 1.15619e-08
3.38035e-09 0.0207944 1.11613e-08
3.70497e-09 0.0207944 1.12677e-08
3.20857e-09 0.0207944 1.17599e-08
2.76152e-09 0.0207944 1.15782e-08
2.86269e-09 0.0220371 1.18239e-08
3.537e-09 0.0220371 1.19781e-08
3.33033e-09 0.0220371 1.22258e-08
3.08812e-09 0.0220371 1.18254e-08
3.50517e-09 0.0220371 1.19509e-08
3.26754e-09 0.0220371 1.16348e-08
3.23996e-09 0.0220371 1.15886e-08
3.36066e-09 0.0220371 1.209e-08
3.25295e-09 0.0220371 1.22477e-08
3.52606e-09 0.0220371 1.17765e-08
3.32838e-09 0.0220371 1.17223e-08
3.24581e-09 0.0220371 1.15073e-08
3.40061e-09 0.0220371 1.17172e-08
3.43004e-09 0.0220371 1.18088e-08
3.57653e-09 0.0220371 1.19089e-08
3.52207e-09 0.0220371 1.16576e-08
3.30481e-09 0.0220371 1.15944e-08
3.36512e-09 0.0220371 1.14398e-08
3.50292e-09 0.0220371 1.15864e-08
3.68979e-09 0.0220371 1.18888e-08
3.75734e-09 0.0220371 1.18217e-08
3.3928e-09 0.0220371 1.14415e-08
3.41989e-09 0.0220371 1.16187e-08
3.4635e-09 0.0220371 1.13976e-08
2.80214e-09 0.0220371 1.18028e-08
2.7157e-09 0.0232826 1.18968e-08
3.3113e-09 0.0232826 1.20798e-08
3.23496e-09 0.0232826 1.19789e-08
3.14209e-09 0.0232826 1.2072e-08
3.52721e-09 0.0232826 1.1984e-08
2.94948e-09 0.0232826 1.21608e-08
3.2195e-09 0.0232826 1.19225e-08
3.61888e-09 0.0232826 1.19865e-08
3.27021e-09 0.0232826 1.20908e-08
3.31267e-09 0.0232826 1.20312e-08
3.1577e-09 0.0232826 1.18356e-08
3.11439e-09 0.0232826 1.19779e-08
3.37275e-09 0.0232826 1.19888e-08
3.54851e-09 0.0232826 1.19651e-08
3.87604e-09 0.0232826 1.19598e-08
3.25104e-09 0.0232826 1.19739e-08
3.03768e-09 0.0232826 1.18937e-08
3.2972e-09 0.0232826 1.20712e-08
3.53536e-09 0.0232826 1.19156e-08
3.84571e-09 0.0232826 1.19059e-08
2.70261e-09 0.0232826 1.19546e-08
3.17924e-09 0.0232826 1.16646e-08
3.47743e-09 0.0232826 1.18527e-08
3.44633e-09 0.0232826 1.1789e-08
3.79109e-09 0.0232826 1.20148e-08
2.64566e-09 0.024531 1.23847e-08
2.90006e-09 0.024531 1.26679e-08
3.47546e-09 0.024531 1.2243e-08
3.15409e-09 0.024531 1.23948e-08
3.84494e-09 0.024531 1.21322e-08
2.88857e-09 0.024531 1.25132e-08
2.89954e-09 0.024531 1.23292e-08
3.08172e-09 0.024531 1.23235e-08
3.28979e-09 0.024531 1.2373e-08
3.56213e-09 0.024531 1.22013e-08
2.56909e-09 0.024531 1.21099e-08
2.9178e-09 0.024531 1.25122e-08
3.10473e-09 0.024531 1.25486e-08
3.26089e-09 0.024531 1.21861e-08
3.65245e-09 0.024531 1.2123e-08
2.53908e-09 0.024531 1.23827e-08
2.79042e-09 0.024531 1.2246e-08
3.08497e-09 0.024531 1.24539e-08
3.41259e-09 0.024531 1.24225e-08
3.42044e-09 0.024531 1.22774e-08
2.98549e-09 0.024531 1.21649e-08
2.76154e-09 0.024531 1.22227e-08
3.17803e-09 0.024531 1.23893e-08
3.26096e-09 0.024531 1.22362e-08
3.60954e-09 0.024531 1.22446e-08
2.58249e-09 0.0257822 1.27645e-08
2.39187e-09 0.0257822 1.26463e-08
3.22603e-09 0.0257822 1.29432e-08
2.94894e-09 0.0257822 1.24377e-08
2.98545e-09 0.0257822 1.26331e-08
2.1788e-09 0.0257822 1.26146e-08
2.53554e-09 0.0257822 1.27615e-08
2.99126e-09 0.0257822 1.25966e-08
2.89796e-09 0.0257822 1.26365e-08
3.42057e-09 0.0257822 1.28018e-08
2.15895e-09 0.0257822 1.27451e-08
2.59309e-09 0.0257822 1.27438e-08
2.77591e-09 0.0257822 1.28293e-08
3.00321e-09 0.0257822 1.28164e-08
3.59617e-09 0.0257822 1.25754e-08
2.27591e-09 0.0257822 1.27442e-08
2.50746e-09 0.0257822 1.28856e-08
2.83192e-09 0.0257822 1.27114e-08
2.97722e-09 0.0257822 1.26647e-08
3.37113e-09 0.0257822 1.27908e-08
2.14987e-09 0.0257822 1.3078e-08
2.47869e-09 0.0257822 1.22877e-08
2.97782e-09 0.0257822 1.27602e-08
2.97908e-09 0.0257822 1.29183e-08
3.39417e-09 0.0257822 1.3003e-08
2.32403e-09 0.0270364 1.26407e-08
2.1973e-09 0.0270364 1.32761e-08
2.30751e-09 0.0270364 1.29079e-08
2.54807e-09 0.0270364 1.30369e-08
2.67518e-09 0.0270364 1.32389e-08
1.63796e-09 0.0270364 1.32299e-08
2.34834e-09 0.0270364 1.30413e-08
2.42663e-09 0.0270364 1.30897e-08
2.57074e-09 0.0270364 1.32022e-08
2.75495e-09 0.0270364 1.31925e-08
1.5506e-09 0.0270364 1.29421e-08
2.15762e-09 0.0270364 1.31578e-08
2.56152e-09 0.0270364 1.31199e-08
2.50024e-09 0.0270364 1.31486e-08
3.03274e-09 0.0270364 1.33802e-08
1.62158e-09 0.0270364 1.3129e-08
2.16686e-09 0.0270364 1.30436e-08
2.42087e-09 0.0270364 1.31307e-08
2.54376e-09 0.0270364 1.3304e-08
2.95936e-09 0.0270364 1.32343e-08
2.31681e-09 0.0270364 1.32409e-08
2.12998e-09 0.0270364 1.31464e-08
2.52076e-09 0.0270364 1.31267e-08
2.54917e-09 0.0270364 1.31053e-08
2.50985e-09 0.0270364 1.33549e-08
1.31075e-09 0.0282934 1.38075e-08
1.67804e-09 0.0282934 1.32274e-08
1.85908e-09 0.0282934 1.37548e-08
2.16768e-09 0.0282934 1.35212e-08
2.17811e-09 0.0282934 1.33392e-08
1.67771e-09 0.0282934 1.34741e-08
1.7921e-09 0.0282934 1.3442e-08
2.11438e-09 0.0282934 1.36893e-08
1.92439e-09 0.0282934 1.3525e-08
2.47526e-09 0.0282934 1.35056e-08
1.1737e-09 0.0282934 1.35564e-08
1.78271e-09 0.0282934 1.35031e-08
2.166e-09 0.0282934 1.35276e-08
1.95149e-09 0.0282934 1.36923e-08
2.65483e-09 0.0282934 1.36551e-08
1.68167e-09 0.0282934 1.31567e-08
1.71729e-09 0.0282934 1.35225e-08
2.00508e-09 0.0282934 1.36589e-08
2.15537e-09 0.0282934 1.34055e-08
2.45714e-09 0.0282934 1.37136e-08
2.60263e-09 0.0282934 1.33878e-08
1.69428e-09 0.0282934 1.34326e-08
1.92457e-09 0.0282934 1.35836e-08
2.17439e-09 0.0282934 1.34546e-08
1.7485e-09 0.0282934 1.32809e-08
1.15312e-09 0.0295533 1.37906e-08
1.58602e-09 0.0295533 1.40909e-08
1.4415e-09 0.0295533 1.33754e-08
1.60063e-09 0.0295533 1.32289e-08
1.6045e-09 0.0295533 1.31089e-08
1.24589e-09 0.0295533 1.39373e-08