<?xml version="1.0"?>
<VTKFile type="UnstructuredGrid" version="0.1" byte_order="LittleEndian">
<UnstructuredGrid>
<Piece NumberOfPoints="1025" NumberOfCells="640">
<Points>
<DataArray type="Float32" NumberOfComponents="3" format="ascii">
0 0 0
0.025 0 0
0.05 0 0
0.075 0 0
0.1 0 0
0 0.025 0
0.025 0.025 0
0.05 0.025 0
0.075 0.025 0
0.1 0.025 0
0 0.05 0
0.025 0.05 0
0.05 0.05 0
0.075 0.05 0
0.1 0.05 0
0 0.075 0
0.025 0.075 0
0.05 0.075 0
0.075 0.075 0
0.1 0.075 0
0 0.1 0
0.025 0.1 0
0.05 0.1 0
0.075 0.1 0
0.1 0.1 0
0 0 0.025
0.025 0 0.025
0.05 0 0.025
0.075 0 0.025
0.1 0 0.025
0 0.025 0.025
0.025 0.025 0.025
0.05 0.025 0.025
0.075 0.025 0.025
0.1 0.025 0.025
0 0.05 0.025
0.025 0.05 0.025
0.05 0.05 0.025
0.075 0.05 0.025
0.1 0.05 0.025
0 0.075 0.025
0.025 0.075 0.025
0.05 0.075 0.025
0.075 0.075 0.025
0.1 0.075 0.025
0 0.1 0.025
0.025 0.1 0.025
0.05 0.1 0.025
0.075 0.1 0.025
0.1 0.1 0.025
0 0 0.05
0.025 0 0.05
0.05 0 0.05
0.075 0 0.05
0.1 0 0.05
0 0.025 0.05
0.025 0.025 0.05
0.05 0.025 0.05
0.075 0.025 0.05
0.1 0.025 0.05
0 0.05 0.05
0.025 0.05 0.05
0.05 0.05 0.05
0.075 0.05 0.05
0.1 0.05 0.05
0 0.075 0.05
0.025 0.075 0.05
0.05 0.075 0.05
0.075 0.075 0.05
0.1 0.075 0.05
0 0.1 0.05
0.025 0.1 0.05
0.05 0.1 0.05
0.075 0.1 0.05
0.1 0.1 0.05
0 0 0.075
0.025 0 0.075
0.05 0 0.075
0.075 0 0.075
0.1 0 0.075
0 0.025 0.075
0.025 0.025 0.075
0.05 0.025 0.075
0.075 0.025 0.075
0.1 0.025 0.075
0 0.05 0.075
0.025 0.05 0.075
0.05 0.05 0.075
0.075 0.05 0.075
0.1 0.05 0.075
0 0.075 0.075
0.025 0.075 0.075
0.05 0.075 0.075
0.075 0.075 0.075
0.1 0.075 0.075
0 0.1 0.075
0.025 0.1 0.075
0.05 0.1 0.075
0.075 0.1 0.075
0.1 0.1 0.075
0 0 0.1
0.025 0 0.1
0.05 0 0.1
0.075 0 0.1
0.1 0 0.1
0 0.025 0.1
0.025 0.025 0.1
0.05 0.025 0.1
0.075 0.025 0.1
0.1 0.025 0.1
0 0.05 0.1
0.025 0.05 0.1
0.05 0.05 0.1
0.075 0.05 0.1
0.1 0.05 0.1
0 0.075 0.1
0.025 0.075 0.1
0.05 0.075 0.1
0.075 0.075 0.1
0.1 0.075 0.1
0 0.1 0.1
0.025 0.1 0.1
0.05 0.1 0.1
0.075 0.1 0.1
0.1 0.1 0.1
0 0 0.125
0.025 0 0.125
0.05 0 0.125
0.075 0 0.125
0.1 0 0.125
0 0.025 0.125
0.025 0.025 0.125
0.05 0.025 0.125
0.075 0.025 0.125
0.1 0.025 0.125
0 0.05 0.125
0.025 0.05 0.125
0.05 0.05 0.125
0.075 0.05 0.125
0.1 0.05 0.125
0 0.075 0.125
0.025 0.075 0.125
0.05 0.075 0.125
0.075 0.075 0.125
0.1 0.075 0.125
0 0.1 0.125
0.025 0.1 0.125
0.05 0.1 0.125
0.075 0.1 0.125
0.1 0.1 0.125
0 0 0.15
0.025 0 0.15
0.05 0 0.15
0.075 0 0.15
0.1 0 0.15
0 0.025 0.15
0.025 0.025 0.15
0.05 0.025 0.15
0.075 0.025 0.15
0.1 0.025 0.15
0 0.05 0.15
0.025 0.05 0.15
0.05 0.05 0.15
0.075 0.05 0.15
0.1 0.05 0.15
0 0.075 0.15
0.025 0.075 0.15
0.05 0.075 0.15
0.075 0.075 0.15
0.1 0.075 0.15
0 0.1 0.15
0.025 0.1 0.15
0.05 0.1 0.15
0.075 0.1 0.15
0.1 0.1 0.15
0 0 0.175
0.025 0 0.175
0.05 0 0.175
0.075 0 0.175
0.1 0 0.175
0 0.025 0.175
0.025 0.025 0.175
0.05 0.025 0.175
0.075 0.025 0.175
0.1 0.025 0.175
0 0.05 0.175
0.025 0.05 0.175
0.05 0.05 0.175
0.075 0.05 0.175
0.1 0.05 0.175
0 0.075 0.175
0.025 0.075 0.175
0.05 0.075 0.175
0.075 0.075 0.175
0.1 0.075 0.175
0 0.1 0.175
0.025 0.1 0.175
0.05 0.1 0.175
0.075 0.1 0.175
0.1 0.1 0.175
0 0 0.2
0.025 0 0.2
0.05 0 0.2
0.075 0 0.2
0.1 0 0.2
0 0.025 0.2
0.025 0.025 0.2
0.05 0.025 0.2
0.075 0.025 0.2
0.1 0.025 0.2
0 0.05 0.2
0.025 0.05 0.2
0.05 0.05 0.2
0.075 0.05 0.2
0.1 0.05 0.2
0 0.075 0.2
0.025 0.075 0.2
0.05 0.075 0.2
0.075 0.075 0.2
0.1 0.075 0.2
0 0.1 0.2
0.025 0.1 0.2
0.05 0.1 0.2
0.075 0.1 0.2
0.1 0.1 0.2
0 0 0.225
0.025 0 0.225
0.05 0 0.225
0.075 0 0.225
0.1 0 0.225
0 0.025 0.225
0.025 0.025 0.225
0.05 0.025 0.225
0.075 0.025 0.225
0.1 0.025 0.225
0 0.05 0.225
0.025 0.05 0.225
0.05 0.05 0.225
0.075 0.05 0.225
0.1 0.05 0.225
0 0.075 0.225
0.025 0.075 0.225
0.05 0.075 0.225
0.075 0.075 0.225
0.1 0.075 0.225
0 0.1 0.225
0.025 0.1 0.225
0.05 0.1 0.225
0.075 0.1 0.225
0.1 0.1 0.225
0 0 0.25
0.025 0 0.25
0.05 0 0.25
0.075 0 0.25
0.1 0 0.25
0 0.025 0.25
0.025 0.025 0.25
0.05 0.025 0.25
0.075 0.025 0.25
0.1 0.025 0.25
0 0.05 0.25
0.025 0.05 0.25
0.05 0.05 0.25
0.075 0.05 0.25
0.1 0.05 0.25
0 0.075 0.25
0.025 0.075 0.25
0.05 0.075 0.25
0.075 0.075 0.25
0.1 0.075 0.25
0 0.1 0.25
0.025 0.1 0.25
0.05 0.1 0.25
0.075 0.1 0.25
0.1 0.1 0.25
0 0 0.275
0.025 0 0.275
0.05 0 0.275
0.075 0 0.275
0.1 0 0.275
0 0.025 0.275
0.025 0.025 0.275
0.05 0.025 0.275
0.075 0.025 0.275
0.1 0.025 0.275
0 0.05 0.275
0.025 0.05 0.275
0.05 0.05 0.275
0.075 0.05 0.275
0.1 0.05 0.275
0 0.075 0.275
0.025 0.075 0.275
0.05 0.075 0.275
0.075 0.075 0.275
0.1 0.075 0.275
0 0.1 0.275
0.025 0.1 0.275
0.05 0.1 0.275
0.075 0.1 0.275
0.1 0.1 0.275
0 0 0.3
0.025 0 0.3
0.05 0 0.3
0.075 0 0.3
0.1 0 0.3
0 0.025 0.3
0.025 0.025 0.3
0.05 0.025 0.3
0.075 0.025 0.3
0.1 0.025 0.3
0 0.05 0.3
0.025 0.05 0.3
0.05 0.05 0.3
0.075 0.05 0.3
0.1 0.05 0.3
0 0.075 0.3
0.025 0.075 0.3
0.05 0.075 0.3
0.075 0.075 0.3
0.1 0.075 0.3
0 0.1 0.3
0.025 0.1 0.3
0.05 0.1 0.3
0.075 0.1 0.3
0.1 0.1 0.3
0 0 0.325
0.025 0 0.325
0.05 0 0.325
0.075 0 0.325
0.1 0 0.325
0 0.025 0.325
0.025 0.025 0.325
0.05 0.025 0.325
0.075 0.025 0.325
0.1 0.025 0.325
0 0.05 0.325
0.025 0.05 0.325
0.05 0.05 0.325
0.075 0.05 0.325
0.1 0.05 0.325
0 0.075 0.325
0.025 0.075 0.325
0.05 0.075 0.325
0.075 0.075 0.325
0.1 0.075 0.325
0 0.1 0.325
0.025 0.1 0.325
0.05 0.1 0.325
0.075 0.1 0.325
0.1 0.1 0.325
0 0 0.35
0.025 0 0.35
0.05 0 0.35
0.075 0 0.35
0.1 0 0.35
0 0.025 0.35
0.025 0.025 0.35
0.05 0.025 0.35
0.075 0.025 0.35
0.1 0.025 0.35
0 0.05 0.35
0.025 0.05 0.35
0.05 0.05 0.35
0.075 0.05 0.35
0.1 0.05 0.35
0 0.075 0.35
0.025 0.075 0.35
0.05 0.075 0.35
0.075 0.075 0.35
0.1 0.075 0.35
0 0.1 0.35
0.025 0.1 0.35
0.05 0.1 0.35
0.075 0.1 0.35
0.1 0.1 0.35
0 0 0.375
0.025 0 0.375
0.05 0 0.375
0.075 0 0.375
0.1 0 0.375
0 0.025 0.375
0.025 0.025 0.375
0.05 0.025 0.375
0.075 0.025 0.375
0.1 0.025 0.375
0 0.05 0.375
0.025 0.05 0.375
0.05 0.05 0.375
0.075 0.05 0.375
0.1 0.05 0.375
0 0.075 0.375
0.025 0.075 0.375
0.05 0.075 0.375
0.075 0.075 0.375
0.1 0.075 0.375
0 0.1 0.375
0.025 0.1 0.375
0.05 0.1 0.375
0.075 0.1 0.375
0.1 0.1 0.375
0 0 0.4
0.025 0 0.4
0.05 0 0.4
0.075 0 0.4
0.1 0 0.4
0 0.025 0.4
0.025 0.025 0.4
0.05 0.025 0.4
0.075 0.025 0.4
0.1 0.025 0.4
0 0.05 0.4
0.025 0.05 0.4
0.05 0.05 0.4
0.075 0.05 0.4
0.1 0.05 0.4
0 0.075 0.4
0.025 0.075 0.4
0.05 0.075 0.4
0.075 0.075 0.4
0.1 0.075 0.4
0 0.1 0.4
0.025 0.1 0.4
0.05 0.1 0.4
0.075 0.1 0.4
0.1 0.1 0.4
0 0 0.425
0.025 0 0.425
0.05 0 0.425
0.075 0 0.425
0.1 0 0.425
0 0.025 0.425
0.025 0.025 0.425
0.05 0.025 0.425
0.075 0.025 0.425
0.1 0.025 0.425
0 0.05 0.425
0.025 0.05 0.425
0.05 0.05 0.425
0.075 0.05 0.425
0.1 0.05 0.425
0 0.075 0.425
0.025 0.075 0.425
0.05 0.075 0.425
0.075 0.075 0.425
0.1 0.075 0.425
0 0.1 0.425
0.025 0.1 0.425
0.05 0.1 0.425
0.075 0.1 0.425
0.1 0.1 0.425
0 0 0.45
0.025 0 0.45
0.05 0 0.45
0.075 0 0.45
0.1 0 0.45
0 0.025 0.45
0.025 0.025 0.45
0.05 0.025 0.45
0.075 0.025 0.45
0.1 0.025 0.45
0 0.05 0.45
0.025 0.05 0.45
0.05 0.05 0.45
0.075 0.05 0.45
0.1 0.05 0.45
0 0.075 0.45
0.025 0.075 0.45
0.05 0.075 0.45
0.075 0.075 0.45
0.1 0.075 0.45
0 0.1 0.45
0.025 0.1 0.45
0.05 0.1 0.45
0.075 0.1 0.45
0.1 0.1 0.45
0 0 0.475
0.025 0 0.475
0.05 0 0.475
0.075 0 0.475
0.1 0 0.475
0 0.025 0.475
0.025 0.025 0.475
0.05 0.025 0.475
0.075 0.025 0.475
0.1 0.025 0.475
0 0.05 0.475
0.025 0.05 0.475
0.05 0.05 0.475
0.075 0.05 0.475
0.1 0.05 0.475
0 0.075 0.475
0.025 0.075 0.475
0.05 0.075 0.475
0.075 0.075 0.475
0.1 0.075 0.475
0 0.1 0.475
0.025 0.1 0.475
0.05 0.1 0.475
0.075 0.1 0.475
0.1 0.1 0.475
0 0 0.5
0.025 0 0.5
0.05 0 0.5
0.075 0 0.5
0.1 0 0.5
0 0.025 0.5
0.025 0.025 0.5
0.05 0.025 0.5
0.075 0.025 0.5
0.1 0.025 0.5
0 0.05 0.5
0.025 0.05 0.5
0.05 0.05 0.5
0.075 0.05 0.5
0.1 0.05 0.5
0 0.075 0.5
0.025 0.075 0.5
0.05 0.075 0.5
0.075 0.075 0.5
0.1 0.075 0.5
0 0.1 0.5
0.025 0.1 0.5
0.05 0.1 0.5
0.075 0.1 0.5
0.1 0.1 0.5
0 0 0.525
0.025 0 0.525
0.05 0 0.525
0.075 0 0.525
0.1 0 0.525
0 0.025 0.525
0.025 0.025 0.525
0.05 0.025 0.525
0.075 0.025 0.525
0.1 0.025 0.525
0 0.05 0.525
0.025 0.05 0.525
0.05 0.05 0.525
0.075 0.05 0.525
0.1 0.05 0.525
0 0.075 0.525
0.025 0.075 0.525
0.05 0.075 0.525
0.075 0.075 0.525
0.1 0.075 0.525
0 0.1 0.525
0.025 0.1 0.525
0.05 0.1 0.525
0.075 0.1 0.525
0.1 0.1 0.525
0 0 0.55
0.025 0 0.55
0.05 0 0.55
0.075 0 0.55
0.1 0 0.55
0 0.025 0.55
0.025 0.025 0.55
0.05 0.025 0.55
0.075 0.025 0.55
0.1 0.025 0.55
0 0.05 0.55
0.025 0.05 0.55
0.05 0.05 0.55
0.075 0.05 0.55
0.1 0.05 0.55
0 0.075 0.55
0.025 0.075 0.55
0.05 0.075 0.55
0.075 0.075 0.55
0.1 0.075 0.55
0 0.1 0.55
0.025 0.1 0.55
0.05 0.1 0.55
0.075 0.1 0.55
0.1 0.1 0.55
0 0 0.575
0.025 0 0.575
0.05 0 0.575
0.075 0 0.575
0.1 0 0.575
0 0.025 0.575
0.025 0.025 0.575
0.05 0.025 0.575
0.075 0.025 0.575
0.1 0.025 0.575
0 0.05 0.575
0.025 0.05 0.575
0.05 0.05 0.575
0.075 0.05 0.575
0.1 0.05 0.575
0 0.075 0.575
0.025 0.075 0.575
0.05 0.075 0.575
0.075 0.075 0.575
0.1 0.075 0.575
0 0.1 0.575
0.025 0.1 0.575
0.05 0.1 0.575
0.075 0.1 0.575
0.1 0.1 0.575
0 0 0.6
0.025 0 0.6
0.05 0 0.6
0.075 0 0.6
0.1 0 0.6
0 0.025 0.6
0.025 0.025 0.6
0.05 0.025 0.6
0.075 0.025 0.6
0.1 0.025 0.6
0 0.05 0.6
0.025 0.05 0.6
0.05 0.05 0.6
0.075 0.05 0.6
0.1 0.05 0.6
0 0.075 0.6
0.025 0.075 0.6
0.05 0.075 0.6
0.075 0.075 0.6
0.1 0.075 0.6
0 0.1 0.6
0.025 0.1 0.6
0.05 0.1 0.6
0.075 0.1 0.6
0.1 0.1 0.6
0 0 0.625
0.025 0 0.625
0.05 0 0.625
0.075 0 0.625
0.1 0 0.625
0 0.025 0.625
0.025 0.025 0.625
0.05 0.025 0.625
0.075 0.025 0.625
0.1 0.025 0.625
0 0.05 0.625
0.025 0.05 0.625
0.05 0.05 0.625
0.075 0.05 0.625
0.1 0.05 0.625
0 0.075 0.625
0.025 0.075 0.625
0.05 0.075 0.625
0.075 0.075 0.625
0.1 0.075 0.625
0 0.1 0.625
0.025 0.1 0.625
0.05 0.1 0.625
0.075 0.1 0.625
0.1 0.1 0.625
0 0 0.65
0.025 0 0.65
0.05 0 0.65
0.075 0 0.65
0.1 0 0.65
0 0.025 0.65
0.025 0.025 0.65
0.05 0.025 0.65
0.075 0.025 0.65
0.1 0.025 0.65
0 0.05 0.65
0.025 0.05 0.65
0.05 0.05 0.65
0.075 0.05 0.65
0.1 0.05 0.65
0 0.075 0.65
0.025 0.075 0.65
0.05 0.075 0.65
0.075 0.075 0.65
0.1 0.075 0.65
0 0.1 0.65
0.025 0.1 0.65
0.05 0.1 0.65
0.075 0.1 0.65
0.1 0.1 0.65
0 0 0.675
0.025 0 0.675
0.05 0 0.675
0.075 0 0.675
0.1 0 0.675
[...]
<PointData Vectors="Displacement">
<DataArray type="Float32" Name="Displacement" NumberOfComponents="3" format="ascii">
0 0 0
0 0 0
0 0 0
0 0 0
0 0 0
0 0 0
0 0 0
0 0 0
0 0 0
0 0 0
0 0 0
0 0 0
0 0 0
0 0 0
0 0 0
0 0 0
0 0 0
0 0 0
0 0 0
0 0 0
0 0 0
0 0 0
0 0 0
0 0 0
0 0 0
-8.23946e-10 0.00124188 7.70399e-10
-9.65779e-10 0.00124188 7.58356e-10
-1.05395e-09 0.00124188 7.58066e-10
-1.14433e-09 0.00124188 7.56627e-10
-1.25938e-09 0.00124188 7.47552e-10
-8.19256e-10 0.00124188 7.50626e-10
-9.62329e-10 0.00124188 7.44872e-10
-1.04458e-09 0.00124188 7.57216e-10
-1.13845e-09 0.00124188 7.56855e-10
-1.25197e-09 0.00124188 7.66692e-10
-8.3188e-10 0.00124188 7.46689e-10
-9.5597e-10 0.00124188 7.53274e-10
-1.04877e-09 0.00124188 7.46119e-10
-1.13446e-09 0.00124188 7.57551e-10
-1.2938e-09 0.00124188 7.6196e-10
-7.7793e-10 0.00124188 7.72061e-10
-9.61027e-10 0.00124188 7.59008e-10
-1.0421e-09 0.00124188 7.8178e-10
-1.15453e-09 0.00124188 7.7873e-10
-1.30191e-09 0.00124188 7.86586e-10
-7.89919e-10 0.00124188 7.88071e-10
-9.4318e-10 0.00124188 7.97642e-10
-1.06058e-09 0.00124188 7.9721e-10
-1.15378e-09 0.00124188 7.96199e-10
-1.33012e-09 0.00124188 7.98085e-10
-1.80551e-09 0.00248382 1.52767e-09
-1.9332e-09 0.00248382 1.56145e-09
-2.08729e-09 0.00248382 1.54674e-09
-2.20216e-09 0.00248382 1.53731e-09
-2.30662e-09 0.00248382 1.51289e-09
-1.83864e-09 0.00248382 1.54261e-09
-1.94753e-09 0.00248382 1.52448e-09
-2.07441e-09 0.00248382 1.55785e-09
-2.22211e-09 0.00248382 1.56743e-09
-2.37492e-09 0.00248382 1.53236e-09
-1.81324e-09 0.00248382 1.55903e-09
-1.94172e-09 0.00248382 1.58132e-09
-2.0717e-09 0.00248382 1.53287e-09
-2.24502e-09 0.00248382 1.56304e-09
-2.36414e-09 0.00248382 1.57391e-09
-1.75868e-09 0.00248382 1.57876e-09
-1.92946e-09 0.00248382 1.5774e-09
-2.09112e-09 0.00248382 1.58843e-09
-2.26225e-09 0.00248382 1.569e-09
-2.38817e-09 0.00248382 1.55504e-09
-1.70767e-09 0.00248382 1.59551e-09
-1.92258e-09 0.00248382 1.56629e-09
-2.08011e-09 0.00248382 1.58419e-09
-2.25709e-09 0.00248382 1.60068e-09
-2.45041e-09 0.00248382 1.58233e-09
-2.78892e-09 0.00372586 2.34588e-09
-2.9353e-09 0.00372586 2.28586e-09
-3.05627e-09 0.00372586 2.34796e-09
-3.26339e-09 0.00372586 2.34466e-09
-3.36137e-09 0.00372586 2.32985e-09
-2.8193e-09 0.00372586 2.37175e-09
-2.9294e-09 0.00372586 2.37632e-09
-3.06188e-09 0.00372586 2.37557e-09
-3.25211e-09 0.00372586 2.35365e-09
-3.40053e-09 0.00372586 2.36248e-09
-2.76914e-09 0.00372586 2.42519e-09
-2.92733e-09 0.00372586 2.39177e-09
-3.09063e-09 0.00372586 2.37325e-09
-3.2654e-09 0.00372586 2.37879e-09
-3.41887e-09 0.00372586 2.36867e-09
-2.71358e-09 0.00372586 2.3875e-09
-2.9152e-09 0.00372586 2.41016e-09
-3.10849e-09 0.00372586 2.39704e-09
-3.27784e-09 0.00372586 2.37676e-09
-3.4746e-09 0.00372586 2.40588e-09
-2.74253e-09 0.00372586 2.42542e-09
-2.90934e-09 0.00372586 2.44486e-09
-3.09611e-09 0.00372586 2.35329e-09
-3.28569e-09 0.00372586 2.38252e-09
-3.49178e-09 0.00372586 2.37448e-09
-3.85435e-09 0.00496806 3.23276e-09
-3.86636e-09 0.00496806 3.1431e-09
-4.00356e-09 0.00496806 3.15064e-09
-4.24205e-09 0.00496806 3.13479e-09
-4.15604e-09 0.00496806 3.15598e-09
-3.78394e-09 0.00496806 3.22286e-09
-3.88512e-09 0.00496806 3.1631e-09
-4.03801e-09 0.00496806 3.13443e-09
-4.22885e-09 0.00496806 3.1738e-09
-4.34556e-09 0.00496806 3.20168e-09
-3.73891e-09 0.00496806 3.19898e-09
-3.89244e-09 0.00496806 3.20293e-09
-4.05572e-09 0.00496806 3.17366e-09
-4.23866e-09 0.00496806 3.23471e-09
-4.35918e-09 0.00496806 3.18304e-09
-3.61758e-09 0.00496806 3.22378e-09
-3.90052e-09 0.00496806 3.23739e-09
-4.06813e-09 0.00496806 3.19194e-09
-4.24797e-09 0.00496806 3.20305e-09
-4.40861e-09 0.00496806 3.20243e-09
-3.67496e-09 0.00496806 3.23604e-09
-3.84845e-09 0.00496806 3.20781e-09
-4.09209e-09 0.00496806 3.16828e-09
-4.25688e-09 0.00496806 3.17294e-09
-4.39941e-09 0.00496806 3.22153e-09
-4.78737e-09 0.00621046 4.04444e-09
-4.78968e-09 0.00621047 4.08248e-09
-4.9149e-09 0.00621046 3.97386e-09
-5.10908e-09 0.00621046 3.98158e-09
-5.2179e-09 0.00621046 3.94949e-09
-4.73184e-09 0.00621046 4.02208e-09
-4.82788e-09 0.00621046 4.0545e-09
-4.91396e-09 0.00621046 3.97641e-09
-5.09435e-09 0.00621046 4.01798e-09
-5.2527e-09 0.00621046 4.04486e-09
-4.67152e-09 0.00621046 4.00695e-09
-4.83948e-09 0.00621046 4.05188e-09
-4.93607e-09 0.00621046 3.99764e-09
-5.12887e-09 0.00621046 4.05039e-09
-5.18935e-09 0.00621046 4.14392e-09
-4.57605e-09 0.00621046 4.06412e-09
-4.7837e-09 0.00621046 4.02487e-09
-4.96339e-09 0.00621046 4.10858e-09
-5.13769e-09 0.00621046 4.06141e-09
-5.18044e-09 0.00621046 4.03663e-09
-4.43621e-09 0.00621046 4.11349e-09
-4.81301e-09 0.00621046 4.0667e-09
-4.94607e-09 0.00621046 4.03936e-09
-5.12364e-09 0.00621046 4.04965e-09
-5.36217e-09 0.00621046 4.03603e-09
-5.47862e-09 0.00745313 4.83773e-09
-5.77056e-09 0.00745313 4.94354e-09
-5.71355e-09 0.00745313 4.78519e-09
-5.99962e-09 0.00745313 4.79623e-09
-5.95948e-09 0.00745313 4.89272e-09
-5.55376e-09 0.00745313 4.87955e-09
-5.69201e-09 0.00745313 4.86117e-09
-5.73193e-09 0.00745313 4.84327e-09
-5.89862e-09 0.00745313 4.8195e-09
-6.05663e-09 0.00745313 4.89447e-09
-5.61176e-09 0.00745313 4.88875e-09
-5.65583e-09 0.00745313 4.8581e-09
-5.75141e-09 0.00745313 4.84626e-09
-5.85438e-09 0.00745313 4.84719e-09
-6.1883e-09 0.00745313 4.84688e-09
-5.43842e-09 0.00745313 4.90687e-09
-5.62644e-09 0.00745313 4.92526e-09
-5.74312e-09 0.00745313 4.89081e-09
-5.9108e-09 0.00745313 4.86698e-09
-6.06704e-09 0.00745313 4.91461e-09
-5.62983e-09 0.00745313 4.89812e-09
-5.61864e-09 0.00745313 4.92966e-09
-5.76319e-09 0.00745313 4.89687e-09
-6.00515e-09 0.00745313 4.869e-09
-5.88502e-09 0.00745313 4.8411e-09
-6.48403e-09 0.0086961 5.76139e-09
-6.41633e-09 0.0086961 5.62382e-09
-6.51629e-09 0.0086961 5.69128e-09
-6.5864e-09 0.0086961 5.57629e-09
-6.80625e-09 0.0086961 5.71753e-09
-6.34863e-09 0.0086961 5.77957e-09
-6.46942e-09 0.0086961 5.72027e-09
-6.53032e-09 0.0086961 5.71167e-09
-6.60852e-09 0.0086961 5.74825e-09
-6.86372e-09 0.0086961 5.65553e-09
-6.41737e-09 0.0086961 5.77588e-09
-6.42432e-09 0.0086961 5.75718e-09
-6.46839e-09 0.0086961 5.70521e-09
-6.62404e-09 0.0086961 5.69888e-09
-6.71204e-09 0.0086961 5.68023e-09
-6.3423e-09 0.0086961 5.79433e-09
-6.40618e-09 0.0086961 5.72257e-09
-6.51166e-09 0.0086961 5.71853e-09
-6.6326e-09 0.0086961 5.68875e-09
-6.83537e-09 0.0086961 5.65636e-09
-6.34368e-09 0.0086961 5.7742e-09
-6.39792e-09 0.0086961 5.79643e-09
-6.4546e-09 0.0086961 5.76601e-09
-6.63364e-09 0.0086961 5.82131e-09
-6.90935e-09 0.0086961 5.77483e-09
-7.04956e-09 0.00993942 6.52029e-09
-7.24975e-09 0.00993942 6.67788e-09
-7.11447e-09 0.00993942 6.56539e-09
-7.42304e-09 0.00993942 6.79333e-09
-7.56977e-09 0.00993942 6.56579e-09
-7.13969e-09 0.00993942 6.71528e-09
-7.08434e-09 0.00993942 6.65471e-09
-7.10059e-09 0.00993942 6.61526e-09
-7.36337e-09 0.00993942 6.60703e-09
-7.27025e-09 0.00993942 6.56941e-09
-7.07279e-09 0.00993942 6.60838e-09
-7.10107e-09 0.00993942 6.6487e-09
-7.16469e-09 0.00993942 6.54359e-09
-7.3905e-09 0.00993942 6.60811e-09
-7.34548e-09 0.00993942 6.59255e-09
-7.00431e-09 0.00993942 6.70377e-09
-7.08114e-09 0.00993942 6.64626e-09
-7.12247e-09 0.00993942 6.603e-09
-7.35424e-09 0.00993942 6.57937e-09
-7.36186e-09 0.00993942 6.66734e-09
-6.62057e-09 0.00993942 6.67209e-09
-7.23537e-09 0.00993942 6.59421e-09
-7.30268e-09 0.00993942 6.44761e-09
-7.37123e-09 0.00993942 6.64912e-09
-7.65523e-09 0.00993942 6.60846e-09
-7.32868e-09 0.0111831 7.39656e-09
-7.57329e-09 0.0111831 7.26496e-09
-7.60152e-09 0.0111831 7.41496e-09
-7.93955e-09 0.0111831 7.45853e-09
-7.95334e-09 0.0111831 7.388e-09
-7.53428e-09 0.0111831 7.32979e-09
-7.69564e-09 0.0111831 7.41274e-09
-7.7748e-09 0.0111831 7.40168e-09
-7.92898e-09 0.0111831 7.36467e-09
-7.97205e-09 0.0111831 7.42529e-09
-7.57447e-09 0.0111831 7.3767e-09
-7.71497e-09 0.0111831 7.40493e-09
-7.70493e-09 0.0111831 7.40063e-09
-7.89481e-09 0.0111831 7.4616e-09
-8.00378e-09 0.0111831 7.62433e-09
-7.55376e-09 0.0111831 7.38133e-09
-7.69659e-09 0.0111831 7.43511e-09
-7.75073e-09 0.0111831 7.45914e-09
-7.80705e-09 0.0111831 7.56487e-09
-8.03714e-09 0.0111831 7.47749e-09
-7.61032e-09 0.0111831 7.28488e-09
-7.5928e-09 0.0111831 7.38599e-09
-7.68161e-09 0.0111831 7.43607e-09
-7.83386e-09 0.0111831 7.48368e-09
-7.94067e-09 0.0111831 7.52751e-09
-7.95195e-09 0.0124273 8.23251e-09
-8.22245e-09 0.0124273 8.27801e-09
-8.14935e-09 0.0124273 7.96818e-09
-8.28678e-09 0.0124273 8.20452e-09
-8.33973e-09 0.0124273 8.42139e-09
-8.23703e-09 0.0124273 8.16757e-09
-8.14923e-09 0.0124273 8.16179e-09
-8.21973e-09 0.0124273 8.14124e-09
-8.37016e-09 0.0124273 8.19952e-09
-8.29924e-09 0.0124273 8.30922e-09
-8.2201e-09 0.0124273 8.20447e-09
-8.24005e-09 0.0124273 8.30071e-09
-8.29779e-09 0.0124273 8.20665e-09
-8.37452e-09 0.0124273 8.36892e-09
-8.38908e-09 0.0124273 8.23277e-09
-8.20949e-09 0.0124273 8.23878e-09
-8.26401e-09 0.0124273 8.23618e-09
-8.1943e-09 0.0124273 8.31622e-09
-8.32151e-09 0.0124273 8.14693e-09
-8.44212e-09 0.0124273 8.28282e-09
-8.16441e-09 0.0124273 8.33669e-09
-8.23131e-09 0.0124273 8.21469e-09
-8.10648e-09 0.0124273 8.25368e-09
-8.39733e-09 0.0124273 8.4462e-09
-8.42242e-09 0.0124273 8.2647e-09
-8.5677e-09 0.0136719 9.21257e-09
-8.6234e-09 0.0136719 9.06477e-09
-8.6291e-09 0.0136719 9.10331e-09
-8.6648e-09 0.0136719 9.35748e-09
-9.04534e-09 0.0136719 9.39748e-09
-8.73791e-09 0.0136719 9.16674e-09
-8.69283e-09 0.0136719 9.12242e-09
-8.63738e-09 0.0136719 9.03967e-09
-8.69633e-09 0.0136719 9.07835e-09
-8.80532e-09 0.0136719 9.23314e-09
-8.86699e-09 0.0136719 9.21595e-09
-8.6686e-09 0.0136719 9.1681e-09
-8.75636e-09 0.0136719 9.10984e-09
-8.85837e-09 0.0136719 9.08053e-09
-8.62807e-09 0.0136719 9.1107e-09
-8.68814e-09 0.0136719 9.28777e-09
-8.72114e-09 0.0136719 9.2168e-09
-8.77763e-09 0.0136719 9.21459e-09
-8.78236e-09 0.0136719 9.15951e-09
-8.66758e-09 0.0136719 9.17523e-09
-8.47267e-09 0.0136719 9.13723e-09
-8.79091e-09 0.0136719 9.30954e-09
-8.77045e-09 0.0136719 9.12815e-09
-8.5196e-09 0.0136719 9.11766e-09
-8.98231e-09 0.0136719 9.21548e-09
-8.87483e-09 0.014917 1.01123e-08
-9.01113e-09 0.014917 1.00479e-08
-9.01284e-09 0.014917 1.02604e-08
-9.16839e-09 0.014917 9.98443e-09
-9.485e-09 0.014917 9.8817e-09
-8.95042e-09 0.014917 1.02168e-08
-9.07433e-09 0.014917 1.01449e-08
-9.07989e-09 0.014917 1.01238e-08
-9.19809e-09 0.014917 9.95021e-09
-9.21855e-09 0.014917 9.95836e-09
-9.07214e-09 0.014917 1.0232e-08
-9.11928e-09 0.014917 1.0126e-08
-9.10935e-09 0.014917 9.91424e-09
-9.2862e-09 0.014917 1.01016e-08
-9.05571e-09 0.014917 1.00037e-08
-8.90828e-09 0.014917 1.00864e-08
-9.19464e-09 0.014917 1.01539e-08
-9.05104e-09 0.014917 1.0165e-08
-9.22584e-09 0.014917 9.98336e-09
-9.27066e-09 0.014917 1.00571e-08
-8.94123e-09 0.014917 1.0113e-08
-9.19162e-09 0.014917 1.01932e-08
-9.02635e-09 0.014917 1.00814e-08
-9.05905e-09 0.014917 1.01506e-08
-9.45212e-09 0.014917 9.9203e-09
-9.35799e-09 0.0161626 1.101e-08
-9.17399e-09 0.0161626 1.08024e-08
-9.58893e-09 0.0161626 1.08127e-08
-9.73377e-09 0.0161626 1.0729e-08
-9.20121e-09 0.0161626 1.05559e-08
-9.14884e-09 0.0161626 1.10003e-08
-9.49256e-09 0.0161626 1.08291e-08
-9.45785e-09 0.0161626 1.07669e-08
-9.48737e-09 0.0161626 1.07729e-08
-9.49011e-09 0.0161626 1.08462e-08
-9.32766e-09 0.0161626 1.07094e-08
-9.43348e-09 0.0161626 1.09902e-08
-9.35753e-09 0.0161626 1.09309e-08
-9.40512e-09 0.0161626 1.08635e-08
-9.77361e-09 0.0161626 1.08526e-08
-9.45024e-09 0.0161626 1.10289e-08
-9.29932e-09 0.0161626 1.09455e-08
-9.29483e-09 0.0161626 1.09788e-08
-9.52748e-09 0.0161626 1.08756e-08
-9.43508e-09 0.0161626 1.08776e-08
-9.42754e-09 0.0161626 1.09499e-08
-9.37833e-09 0.0161626 1.09185e-08
-9.39961e-09 0.0161626 1.10531e-08
-9.45959e-09 0.0161626 1.107e-08
-9.4568e-09 0.0161626 1.06825e-08
-9.19633e-09 0.0174088 1.16996e-08
-9.68123e-09 0.0174088 1.14091e-08
-9.78383e-09 0.0174088 1.13287e-08
-9.82715e-09 0.0174088 1.13508e-08
-1.00213e-08 0.0174088 1.17884e-08
-9.34014e-09 0.0174088 1.16796e-08
-9.65021e-09 0.0174088 1.15725e-08
-9.72771e-09 0.0174088 1.14659e-08
-9.7815e-09 0.0174088 1.15229e-08
-9.96151e-09 0.0174088 1.15024e-08
-9.64421e-09 0.0174088 1.16003e-08
-9.55938e-09 0.0174088 1.16567e-08
-9.57172e-09 0.0174088 1.17173e-08
-9.75056e-09 0.0174088 1.13833e-08
-9.95939e-09 0.0174088 1.15332e-08
-9.74281e-09 0.0174088 1.1826e-08
-9.51258e-09 0.0174088 1.17269e-08
-9.47861e-09 0.0174088 1.17297e-08
-9.82325e-09 0.0174088 1.14854e-08
-9.83476e-09 0.0174088 1.153e-08
-9.92676e-09 0.0174088 1.19548e-08
-9.47072e-09 0.0174088 1.17851e-08
-9.64146e-09 0.0174088 1.17437e-08
-9.6954e-09 0.0174088 1.15159e-08
-9.38706e-09 0.0174088 1.1897e-08
-9.63676e-09 0.0186556 1.20567e-08
-9.94509e-09 0.0186556 1.24205e-08
-9.90595e-09 0.0186556 1.18811e-08
-9.82211e-09 0.0186556 1.21437e-08
-1.01035e-08 0.0186556 1.2009e-08
-9.68284e-09 0.0186556 1.2258e-08
-9.95131e-09 0.0186556 1.22621e-08
-9.85924e-09 0.0186556 1.22447e-08
-9.98979e-09 0.0186556 1.20227e-08
-1.02136e-08 0.0186556 1.22069e-08
-9.89308e-09 0.0186556 1.23819e-08
-9.79211e-09 0.0186556 1.22038e-08
-9.74896e-09 0.0186556 1.22706e-08
-1.0053e-08 0.0186556 1.21955e-08
-1.0067e-08 0.0186556 1.19731e-08
-9.60115e-09 0.0186556 1.23124e-08
-9.85889e-09 0.0186556 1.23222e-08
-9.82722e-09 0.0186556 1.21626e-08
-9.90691e-09 0.0186556 1.21264e-08
-9.95663e-09 0.0186556 1.22762e-08
-9.34067e-09 0.0186556 1.21792e-08
-1.00743e-08 0.0186556 1.24248e-08
-9.74729e-09 0.0186556 1.22092e-08
-1.0059e-08 0.0186556 1.21242e-08
-9.81092e-09 0.0186556 1.23448e-08
-1.0842e-08 0.019903 1.28525e-08
-1.01203e-08 0.019903 1.30044e-08
-1.03342e-08 0.019903 1.32827e-08
-1.02912e-08 0.019903 1.26153e-08
-9.68897e-09 0.019903 1.27981e-08
-1.02455e-08 0.019903 1.29809e-08
-9.94363e-09 0.019903 1.28797e-08
-9.89397e-09 0.019903 1.28342e-08
-1.00833e-08 0.019903 1.27269e-08
-1.03316e-08 0.019903 1.27518e-08
-9.77587e-09 0.019903 1.29019e-08
-1.0042e-08 0.019903 1.308e-08
-1.00286e-08 0.019903 1.29715e-08
-1.01195e-08 0.019903 1.27917e-08
-1.0219e-08 0.019903 1.29929e-08
-9.93334e-09 0.019903 1.28776e-08
-1.01403e-08 0.019903 1.28863e-08
-9.99339e-09 0.019903 1.29658e-08
-1.01709e-08 0.019903 1.31566e-08
-9.83111e-09 0.019903 1.27822e-08
-9.76961e-09 0.019903 1.27791e-08
-9.86343e-09 0.019903 1.27532e-08
-1.03896e-08 0.019903 1.27855e-08
-9.79891e-09 0.019903 1.31816e-08
-1.04443e-08 0.019903 1.28462e-08
-1.00365e-08 0.021151 1.38599e-08
-1.01276e-08 0.021151 1.40185e-08
-9.81865e-09 0.021151 1.38754e-08
-1.04984e-08 0.021151 1.35206e-08
-1.02126e-08 0.021151 1.36294e-08
-9.90798e-09 0.021151 1.36436e-08
-1.02937e-08 0.021151 1.37151e-08
-1.00732e-08 0.021151 1.36667e-08
-1.03094e-08 0.021151 1.35005e-08
-1.00487e-08 0.021151 1.34863e-08
-1.0132e-08 0.021151 1.34843e-08
-1.01103e-08 0.021151 1.34053e-08
-1.01459e-08 0.021151 1.34744e-08
-1.00404e-08 0.021151 1.35211e-08
-1.02217e-08 0.021151 1.35756e-08
-9.90785e-09 0.021151 1.3335e-08
-1.01201e-08 0.021151 1.33262e-08
-1.00544e-08 0.021151 1.33583e-08
-1.01314e-08 0.021151 1.35651e-08
-1.01845e-08 0.021151 1.36279e-08
-9.8419e-09 0.021151 1.32286e-08
-1.03216e-08 0.021151 1.33491e-08
-9.76414e-09 0.021151 1.37296e-08
-1.00102e-08 0.021151 1.35681e-08
-1.04421e-08 0.021151 1.35752e-08
-1.0067e-08 0.0223996 1.43064e-08
-1.02868e-08 0.0223996 1.42985e-08
-1.00856e-08 0.0223996 1.42636e-08
-1.02412e-08 0.0223996 1.40451e-08
-1.04245e-08 0.0223996 1.41556e-08
-1.01679e-08 0.0223996 1.40924e-08
-1.02222e-08 0.0223996 1.41285e-08
-1.00931e-08 0.0223996 1.43131e-08
-1.01515e-08 0.0223996 1.402e-08
-9.98433e-09 0.0223996 1.39539e-08
-1.03192e-08 0.0223996 1.40739e-08
-1.02678e-08 0.0223996 1.37965e-08
-9.98766e-09 0.0223996 1.38756e-08
-1.00792e-08 0.0223996 1.40518e-08
-9.8391e-09 0.0223996 1.40771e-08
-1.03885e-08 0.0223996 1.38704e-08
-1.02726e-08 0.0223996 1.39453e-08
-1.01242e-08 0.0223996 1.40018e-08
-9.8356e-09 0.0223996 1.39571e-08
-1.02395e-08 0.0223996 1.42761e-08
-1.02856e-08 0.0223996 1.40214e-08
-1.00647e-08 0.0223996 1.3842e-08
-9.8387e-09 0.0223996 1.41841e-08
-1.00934e-08 0.0223996 1.43326e-08
-1.02718e-08 0.0223996 1.44187e-08
-1.05629e-08 0.0236488 1.45025e-08
-9.96301e-09 0.0236488 1.48595e-08
-1.01796e-08 0.0236488 1.43598e-08
-9.95658e-09 0.0236488 1.4256e-08
-9.95787e-09 0.0236488 1.43761e-08
-1.04877e-08 0.0236488 1.48238e-08
-1.02185e-08 0.0236488 1.44989e-08
-9.90662e-09 0.0236488 1.44811e-08
-1.00788e-08 0.0236488 1.43458e-08
-9.65906e-09 0.0236488 1.42659e-08
-1.06163e-08 0.0236488 1.45189e-08
-1.00863e-08 0.0236488 1.45169e-08
-9.97697e-09 0.0236488 1.45886e-08
-9.87765e-09 0.0236488 1.43906e-08
-9.69769e-09 0.0236488 1.44788e-08
-1.02338e-08 0.0236488 1.4705e-08
-1.01382e-08 0.0236488 1.45135e-08
-9.85717e-09 0.0236488 1.47592e-08
-9.97551e-09 0.0236488 1.45879e-08
-9.52377e-09 0.0236488 1.45045e-08
-1.03313e-08 0.0236488 1.46598e-08
-1.00038e-08 0.0236488 1.46047e-08
-1.00998e-08 0.0236488 1.48557e-08
-9.77845e-09 0.0236488 1.46393e-08
-1.01758e-08 0.0236488 1.47053e-08
-1.04979e-08 0.0248987 1.54758e-08
-9.96615e-09 0.0248987 1.51429e-08
-9.80515e-09 0.0248987 1.50359e-08
-1.0149e-08 0.0248987 1.49472e-08
-9.56482e-09 0.0248987 1.45733e-08
-1.02744e-08 0.0248987 1.53528e-08
-9.92651e-09 0.0248987 1.51889e-08
-9.96277e-09 0.0248987 1.50238e-08
-9.7143e-09 0.0248987 1.49318e-08
-9.69642e-09 0.0248987 1.47444e-08
-1.00077e-08 0.0248987 1.51995e-08
-1.03008e-08 0.0248987 1.54103e-08
-9.61277e-09 0.0248987 1.52647e-08
-9.79775e-09 0.0248987 1.49373e-08
-9.42225e-09 0.0248987 1.49613e-08
-1.0266e-08 0.0248987 1.53507e-08
-1.00185e-08 0.0248987 1.51375e-08
-9.96682e-09 0.0248987 1.53507e-08
-9.82145e-09 0.0248987 1.52729e-08
-9.53824e-09 0.0248987 1.51115e-08
-1.01315e-08 0.0248987 1.51973e-08
-1.00233e-08 0.0248987 1.51536e-08
-9.87906e-09 0.0248987 1.5239e-08
-1.0086e-08 0.0248987 1.49367e-08
-9.59677e-09 0.0248987 1.49491e-08
-1.005e-08 0.0261492 1.59566e-08
-9.93396e-09 0.0261492 1.56375e-08
-9.34219e-09 0.0261492 1.53187e-08
-9.82515e-09 0.0261492 1.55483e-08
-9.06047e-09 0.0261492 1.59768e-08
-9.92133e-09 0.0261492 1.5868e-08
-9.90409e-09 0.0261492 1.56789e-08
-9.52107e-09 0.0261492 1.56625e-08
-9.75544e-09 0.0261492 1.55349e-08
-9.21782e-09 0.0261492 1.54958e-08
-1.01703e-08 0.0261492 1.58425e-08
-9.89433e-09 0.0261492 1.59759e-08
-9.80552e-09 0.0261492 1.59139e-08
-9.56025e-09 0.0261492 1.57319e-08
-9.36738e-09 0.0261492 1.55032e-08
-1.01785e-08 0.0261492 1.58981e-08
-9.98703e-09 0.0261492 1.60496e-08
-9.77761e-09 0.0261492 1.60081e-08
-9.77167e-09 0.0261492 1.55844e-08
-9.70982e-09 0.0261492 1.58578e-08
-1.0215e-08 0.0261492 1.59723e-08
-1.00495e-08 0.0261492 1.57374e-08
-9.69289e-09 0.0261492 1.60909e-08
-9.79371e-09 0.0261492 1.59328e-08
-9.66224e-09 0.0261492 1.59616e-08
-9.96862e-09 0.0274003 1.63953e-08
-9.45745e-09 0.0274003 1.61664e-08
-9.56387e-09 0.0274003 1.57014e-08
-9.34283e-09 0.0274003 1.62833e-08
-8.50172e-09 0.0274003 1.627e-08
-9.64616e-09 0.0274003 1.63924e-08
-9.67635e-09 0.0274003 1.62597e-08
-9.5767e-09 0.0274003 1.61377e-08
-9.34514e-09 0.0274003 1.61806e-08
-9.35332e-09 0.0274003 1.63383e-08
-9.78413e-09 0.0274003 1.62522e-08
-9.66489e-09 0.0274003 1.65052e-08
-9.56554e-09 0.0274003 1.65007e-08
-9.64767e-09 0.0274003 1.63105e-08
-8.89159e-09 0.0274003 1.65171e-08
-9.68775e-09 0.0274003 1.64882e-08
-9.72407e-09 0.0274003 1.64243e-08
-9.73751e-09 0.0274003 1.65485e-08
-9.73969e-09 0.0274003 1.65695e-08
-9.41117e-09 0.0274003 1.64392e-08
-9.27241e-09 0.0274003 1.64504e-08
-9.68552e-09 0.0274003 1.66561e-08
-9.87871e-09 0.0274003 1.63278e-08
-9.61689e-09 0.0274003 1.65761e-08
-9.86897e-09 0.0274003 1.65094e-08
-9.32158e-09 0.0286521 1.71327e-08
-9.69016e-09 0.0286521 1.67476e-08
-9.32821e-09 0.0286521 1.66311e-08
-9.18894e-09 0.0286521 1.68349e-08
-8.9197e-09 0.0286521 1.66163e-08
-9.39953e-09 0.0286521 1.68004e-08
-9.63925e-09 0.0286521 1.69635e-08
-9.31313e-09 0.0286521 1.69344e-08
-9.32519e-09 0.0286521 1.67106e-08
-8.91163e-09 0.0286521 1.70116e-08
-9.24439e-09 0.0286521 1.70732e-08
-9.56516e-09 0.0286521 1.71699e-08
-9.51539e-09 0.0286521 1.69982e-08
-9.43876e-09 0.0286521 1.71152e-08