<?xml version="1.0"?>
<VTKFile type="UnstructuredGrid" version="0.1" byte_order="LittleEndian">
<UnstructuredGrid>
<Piece NumberOfPoints="1025" NumberOfCells="640">
<Points>
<DataArray type="Float32" NumberOfComponents="3" format="ascii">
0 0 0
0.025 0 0
0.05 0 0
0.075 0 0
0.1 0 0
0 0.025 0
0.025 0.025 0
0.05 0.025 0
0.075 0.025 0
0.1 0.025 0
0 0.05 0
0.025 0.05 0
0.05 0.05 0
0.075 0.05 0
0.1 0.05 0
0 0.075 0
0.025 0.075 0
0.05 0.075 0
0.075 0.075 0
0.1 0.075 0
0 0.1 0
0.025 0.1 0
0.05 0.1 0
0.075 0.1 0
0.1 0.1 0
0 0 0.025
0.025 0 0.025
0.05 0 0.025
0.075 0 0.025
0.1 0 0.025
0 0.025 0.025
0.025 0.025 0.025
0.05 0.025 0.025
0.075 0.025 0.025
0.1 0.025 0.025
0 0.05 0.025
0.025 0.05 0.025
0.05 0.05 0.025
0.075 0.05 0.025
0.1 0.05 0.025
0 0.075 0.025
0.025 0.075 0.025
0.05 0.075 0.025
0.075 0.075 0.025
0.1 0.075 0.025
0 0.1 0.025
0.025 0.1 0.025
0.05 0.1 0.025
0.075 0.1 0.025
0.1 0.1 0.025
0 0 0.05
0.025 0 0.05
0.05 0 0.05
0.075 0 0.05
0.1 0 0.05
0 0.025 0.05
0.025 0.025 0.05
0.05 0.025 0.05
0.075 0.025 0.05
0.1 0.025 0.05
0 0.05 0.05
0.025 0.05 0.05
0.05 0.05 0.05
0.075 0.05 0.05
0.1 0.05 0.05
0 0.075 0.05
0.025 0.075 0.05
0.05 0.075 0.05
0.075 0.075 0.05
0.1 0.075 0.05
0 0.1 0.05
0.025 0.1 0.05
0.05 0.1 0.05
0.075 0.1 0.05
0.1 0.1 0.05
0 0 0.075
0.025 0 0.075
0.05 0 0.075
0.075 0 0.075
0.1 0 0.075
0 0.025 0.075
0.025 0.025 0.075
0.05 0.025 0.075
0.075 0.025 0.075
0.1 0.025 0.075
0 0.05 0.075
0.025 0.05 0.075
0.05 0.05 0.075
0.075 0.05 0.075
0.1 0.05 0.075
0 0.075 0.075
0.025 0.075 0.075
0.05 0.075 0.075
0.075 0.075 0.075
0.1 0.075 0.075
0 0.1 0.075
0.025 0.1 0.075
0.05 0.1 0.075
0.075 0.1 0.075
0.1 0.1 0.075
0 0 0.1
0.025 0 0.1
0.05 0 0.1
0.075 0 0.1
0.1 0 0.1
0 0.025 0.1
0.025 0.025 0.1
0.05 0.025 0.1
0.075 0.025 0.1
0.1 0.025 0.1
0 0.05 0.1
0.025 0.05 0.1
0.05 0.05 0.1
0.075 0.05 0.1
0.1 0.05 0.1
0 0.075 0.1
0.025 0.075 0.1
0.05 0.075 0.1
0.075 0.075 0.1
0.1 0.075 0.1
0 0.1 0.1
0.025 0.1 0.1
0.05 0.1 0.1
0.075 0.1 0.1
0.1 0.1 0.1
0 0 0.125
0.025 0 0.125
0.05 0 0.125
0.075 0 0.125
0.1 0 0.125
0 0.025 0.125
0.025 0.025 0.125
0.05 0.025 0.125
0.075 0.025 0.125
0.1 0.025 0.125
0 0.05 0.125
0.025 0.05 0.125
0.05 0.05 0.125
0.075 0.05 0.125
0.1 0.05 0.125
0 0.075 0.125
0.025 0.075 0.125
0.05 0.075 0.125
0.075 0.075 0.125
0.1 0.075 0.125
0 0.1 0.125
0.025 0.1 0.125
0.05 0.1 0.125
0.075 0.1 0.125
0.1 0.1 0.125
0 0 0.15
0.025 0 0.15
0.05 0 0.15
0.075 0 0.15
0.1 0 0.15
0 0.025 0.15
0.025 0.025 0.15
0.05 0.025 0.15
0.075 0.025 0.15
0.1 0.025 0.15
0 0.05 0.15
0.025 0.05 0.15
0.05 0.05 0.15
0.075 0.05 0.15
0.1 0.05 0.15
0 0.075 0.15
0.025 0.075 0.15
0.05 0.075 0.15
0.075 0.075 0.15
0.1 0.075 0.15
0 0.1 0.15
0.025 0.1 0.15
0.05 0.1 0.15
0.075 0.1 0.15
0.1 0.1 0.15
0 0 0.175
0.025 0 0.175
0.05 0 0.175
0.075 0 0.175
0.1 0 0.175
0 0.025 0.175
0.025 0.025 0.175
0.05 0.025 0.175
0.075 0.025 0.175
0.1 0.025 0.175
0 0.05 0.175
0.025 0.05 0.175
0.05 0.05 0.175
0.075 0.05 0.175
0.1 0.05 0.175
0 0.075 0.175
0.025 0.075 0.175
0.05 0.075 0.175
0.075 0.075 0.175
0.1 0.075 0.175
0 0.1 0.175
0.025 0.1 0.175
0.05 0.1 0.175
0.075 0.1 0.175
0.1 0.1 0.175
0 0 0.2
0.025 0 0.2
0.05 0 0.2
0.075 0 0.2
0.1 0 0.2
0 0.025 0.2
0.025 0.025 0.2
0.05 0.025 0.2
0.075 0.025 0.2
0.1 0.025 0.2
0 0.05 0.2
0.025 0.05 0.2
0.05 0.05 0.2
0.075 0.05 0.2
0.1 0.05 0.2
0 0.075 0.2
0.025 0.075 0.2
0.05 0.075 0.2
0.075 0.075 0.2
0.1 0.075 0.2
0 0.1 0.2
0.025 0.1 0.2
0.05 0.1 0.2
0.075 0.1 0.2
0.1 0.1 0.2
0 0 0.225
0.025 0 0.225
0.05 0 0.225
0.075 0 0.225
0.1 0 0.225
0 0.025 0.225
0.025 0.025 0.225
0.05 0.025 0.225
0.075 0.025 0.225
0.1 0.025 0.225
0 0.05 0.225
0.025 0.05 0.225
0.05 0.05 0.225
0.075 0.05 0.225
0.1 0.05 0.225
0 0.075 0.225
0.025 0.075 0.225
0.05 0.075 0.225
0.075 0.075 0.225
0.1 0.075 0.225
0 0.1 0.225
0.025 0.1 0.225
0.05 0.1 0.225
0.075 0.1 0.225
0.1 0.1 0.225
0 0 0.25
0.025 0 0.25
0.05 0 0.25
0.075 0 0.25
0.1 0 0.25
0 0.025 0.25
0.025 0.025 0.25
0.05 0.025 0.25
0.075 0.025 0.25
0.1 0.025 0.25
0 0.05 0.25
0.025 0.05 0.25
0.05 0.05 0.25
0.075 0.05 0.25
0.1 0.05 0.25
0 0.075 0.25
0.025 0.075 0.25
0.05 0.075 0.25
0.075 0.075 0.25
0.1 0.075 0.25
0 0.1 0.25
0.025 0.1 0.25
0.05 0.1 0.25
0.075 0.1 0.25
0.1 0.1 0.25
0 0 0.275
0.025 0 0.275
0.05 0 0.275
0.075 0 0.275
0.1 0 0.275
0 0.025 0.275
0.025 0.025 0.275
0.05 0.025 0.275
0.075 0.025 0.275
0.1 0.025 0.275
0 0.05 0.275
0.025 0.05 0.275
0.05 0.05 0.275
0.075 0.05 0.275
0.1 0.05 0.275
0 0.075 0.275
0.025 0.075 0.275
0.05 0.075 0.275
0.075 0.075 0.275
0.1 0.075 0.275
0 0.1 0.275
0.025 0.1 0.275
0.05 0.1 0.275
0.075 0.1 0.275
0.1 0.1 0.275
0 0 0.3
0.025 0 0.3
0.05 0 0.3
0.075 0 0.3
0.1 0 0.3
0 0.025 0.3
0.025 0.025 0.3
0.05 0.025 0.3
0.075 0.025 0.3
0.1 0.025 0.3
0 0.05 0.3
0.025 0.05 0.3
0.05 0.05 0.3
0.075 0.05 0.3
0.1 0.05 0.3
0 0.075 0.3
0.025 0.075 0.3
0.05 0.075 0.3
0.075 0.075 0.3
0.1 0.075 0.3
0 0.1 0.3
0.025 0.1 0.3
0.05 0.1 0.3
0.075 0.1 0.3
0.1 0.1 0.3
0 0 0.325
0.025 0 0.325
0.05 0 0.325
0.075 0 0.325
0.1 0 0.325
0 0.025 0.325
0.025 0.025 0.325
0.05 0.025 0.325
0.075 0.025 0.325
0.1 0.025 0.325
0 0.05 0.325
0.025 0.05 0.325
0.05 0.05 0.325
0.075 0.05 0.325
0.1 0.05 0.325
0 0.075 0.325
0.025 0.075 0.325
0.05 0.075 0.325
0.075 0.075 0.325
0.1 0.075 0.325
0 0.1 0.325
0.025 0.1 0.325
0.05 0.1 0.325
0.075 0.1 0.325
0.1 0.1 0.325
0 0 0.35
0.025 0 0.35
0.05 0 0.35
0.075 0 0.35
0.1 0 0.35
0 0.025 0.35
0.025 0.025 0.35
0.05 0.025 0.35
0.075 0.025 0.35
0.1 0.025 0.35
0 0.05 0.35
0.025 0.05 0.35
0.05 0.05 0.35
0.075 0.05 0.35
0.1 0.05 0.35
0 0.075 0.35
0.025 0.075 0.35
0.05 0.075 0.35
0.075 0.075 0.35
0.1 0.075 0.35
0 0.1 0.35
0.025 0.1 0.35
0.05 0.1 0.35
0.075 0.1 0.35
0.1 0.1 0.35
0 0 0.375
0.025 0 0.375
0.05 0 0.375
0.075 0 0.375
0.1 0 0.375
0 0.025 0.375
0.025 0.025 0.375
0.05 0.025 0.375
0.075 0.025 0.375
0.1 0.025 0.375
0 0.05 0.375
0.025 0.05 0.375
0.05 0.05 0.375
0.075 0.05 0.375
0.1 0.05 0.375
0 0.075 0.375
0.025 0.075 0.375
0.05 0.075 0.375
0.075 0.075 0.375
0.1 0.075 0.375
0 0.1 0.375
0.025 0.1 0.375
0.05 0.1 0.375
0.075 0.1 0.375
0.1 0.1 0.375
0 0 0.4
0.025 0 0.4
0.05 0 0.4
0.075 0 0.4
0.1 0 0.4
0 0.025 0.4
0.025 0.025 0.4
0.05 0.025 0.4
0.075 0.025 0.4
0.1 0.025 0.4
0 0.05 0.4
0.025 0.05 0.4
0.05 0.05 0.4
0.075 0.05 0.4
0.1 0.05 0.4
0 0.075 0.4
0.025 0.075 0.4
0.05 0.075 0.4
0.075 0.075 0.4
0.1 0.075 0.4
0 0.1 0.4
0.025 0.1 0.4
0.05 0.1 0.4
0.075 0.1 0.4
0.1 0.1 0.4
0 0 0.425
0.025 0 0.425
0.05 0 0.425
0.075 0 0.425
0.1 0 0.425
0 0.025 0.425
0.025 0.025 0.425
0.05 0.025 0.425
0.075 0.025 0.425
0.1 0.025 0.425
0 0.05 0.425
0.025 0.05 0.425
0.05 0.05 0.425
0.075 0.05 0.425
0.1 0.05 0.425
0 0.075 0.425
0.025 0.075 0.425
0.05 0.075 0.425
0.075 0.075 0.425
0.1 0.075 0.425
0 0.1 0.425
0.025 0.1 0.425
0.05 0.1 0.425
0.075 0.1 0.425
0.1 0.1 0.425
0 0 0.45
0.025 0 0.45
0.05 0 0.45
0.075 0 0.45
0.1 0 0.45
0 0.025 0.45
0.025 0.025 0.45
0.05 0.025 0.45
0.075 0.025 0.45
0.1 0.025 0.45
0 0.05 0.45
0.025 0.05 0.45
0.05 0.05 0.45
0.075 0.05 0.45
0.1 0.05 0.45
0 0.075 0.45
0.025 0.075 0.45
0.05 0.075 0.45
0.075 0.075 0.45
0.1 0.075 0.45
0 0.1 0.45
0.025 0.1 0.45
0.05 0.1 0.45
0.075 0.1 0.45
0.1 0.1 0.45
0 0 0.475
0.025 0 0.475
0.05 0 0.475
0.075 0 0.475
0.1 0 0.475
0 0.025 0.475
0.025 0.025 0.475
0.05 0.025 0.475
0.075 0.025 0.475
0.1 0.025 0.475
0 0.05 0.475
0.025 0.05 0.475
0.05 0.05 0.475
0.075 0.05 0.475
0.1 0.05 0.475
0 0.075 0.475
0.025 0.075 0.475
0.05 0.075 0.475
0.075 0.075 0.475
0.1 0.075 0.475
0 0.1 0.475
0.025 0.1 0.475
0.05 0.1 0.475
0.075 0.1 0.475
0.1 0.1 0.475
0 0 0.5
0.025 0 0.5
0.05 0 0.5
0.075 0 0.5
0.1 0 0.5
0 0.025 0.5
0.025 0.025 0.5
0.05 0.025 0.5
0.075 0.025 0.5
0.1 0.025 0.5
0 0.05 0.5
0.025 0.05 0.5
0.05 0.05 0.5
0.075 0.05 0.5
0.1 0.05 0.5
0 0.075 0.5
0.025 0.075 0.5
0.05 0.075 0.5
0.075 0.075 0.5
0.1 0.075 0.5
0 0.1 0.5
0.025 0.1 0.5
0.05 0.1 0.5
0.075 0.1 0.5
0.1 0.1 0.5
0 0 0.525
0.025 0 0.525
0.05 0 0.525
0.075 0 0.525
0.1 0 0.525
0 0.025 0.525
0.025 0.025 0.525
0.05 0.025 0.525
0.075 0.025 0.525
0.1 0.025 0.525
0 0.05 0.525
0.025 0.05 0.525
0.05 0.05 0.525
0.075 0.05 0.525
0.1 0.05 0.525
0 0.075 0.525
0.025 0.075 0.525
0.05 0.075 0.525
0.075 0.075 0.525
0.1 0.075 0.525
0 0.1 0.525
0.025 0.1 0.525
0.05 0.1 0.525
0.075 0.1 0.525
0.1 0.1 0.525
0 0 0.55
0.025 0 0.55
0.05 0 0.55
0.075 0 0.55
0.1 0 0.55
0 0.025 0.55
0.025 0.025 0.55
0.05 0.025 0.55
0.075 0.025 0.55
0.1 0.025 0.55
0 0.05 0.55
0.025 0.05 0.55
0.05 0.05 0.55
0.075 0.05 0.55
0.1 0.05 0.55
0 0.075 0.55
0.025 0.075 0.55
0.05 0.075 0.55
0.075 0.075 0.55
0.1 0.075 0.55
0 0.1 0.55
0.025 0.1 0.55
0.05 0.1 0.55
0.075 0.1 0.55
0.1 0.1 0.55
0 0 0.575
0.025 0 0.575
0.05 0 0.575
0.075 0 0.575
0.1 0 0.575
0 0.025 0.575
0.025 0.025 0.575
0.05 0.025 0.575
0.075 0.025 0.575
0.1 0.025 0.575
0 0.05 0.575
0.025 0.05 0.575
0.05 0.05 0.575
0.075 0.05 0.575
0.1 0.05 0.575
0 0.075 0.575
0.025 0.075 0.575
0.05 0.075 0.575
0.075 0.075 0.575
0.1 0.075 0.575
0 0.1 0.575
0.025 0.1 0.575
0.05 0.1 0.575
0.075 0.1 0.575
0.1 0.1 0.575
0 0 0.6
0.025 0 0.6
0.05 0 0.6
0.075 0 0.6
0.1 0 0.6
0 0.025 0.6
0.025 0.025 0.6
0.05 0.025 0.6
0.075 0.025 0.6
0.1 0.025 0.6
0 0.05 0.6
0.025 0.05 0.6
0.05 0.05 0.6
0.075 0.05 0.6
0.1 0.05 0.6
0 0.075 0.6
0.025 0.075 0.6
0.05 0.075 0.6
0.075 0.075 0.6
0.1 0.075 0.6
0 0.1 0.6
0.025 0.1 0.6
0.05 0.1 0.6
0.075 0.1 0.6
0.1 0.1 0.6
0 0 0.625
0.025 0 0.625
0.05 0 0.625
0.075 0 0.625
0.1 0 0.625
0 0.025 0.625
0.025 0.025 0.625
0.05 0.025 0.625
0.075 0.025 0.625
0.1 0.025 0.625
0 0.05 0.625
0.025 0.05 0.625
0.05 0.05 0.625
0.075 0.05 0.625
0.1 0.05 0.625
0 0.075 0.625
0.025 0.075 0.625
0.05 0.075 0.625
0.075 0.075 0.625
0.1 0.075 0.625
0 0.1 0.625
0.025 0.1 0.625
0.05 0.1 0.625
0.075 0.1 0.625
0.1 0.1 0.625
0 0 0.65
0.025 0 0.65
0.05 0 0.65
0.075 0 0.65
0.1 0 0.65
0 0.025 0.65
0.025 0.025 0.65
0.05 0.025 0.65
0.075 0.025 0.65
0.1 0.025 0.65
0 0.05 0.65
0.025 0.05 0.65
0.05 0.05 0.65
0.075 0.05 0.65
0.1 0.05 0.65
0 0.075 0.65
0.025 0.075 0.65
0.05 0.075 0.65
0.075 0.075 0.65
0.1 0.075 0.65
0 0.1 0.65
0.025 0.1 0.65
0.05 0.1 0.65
0.075 0.1 0.65
0.1 0.1 0.65
0 0 0.675
0.025 0 0.675
0.05 0 0.675
0.075 0 0.675
0.1 0 0.675
[...]
<PointData Vectors="Displacement">
<DataArray type="Float32" Name="Displacement" NumberOfComponents="3" format="ascii">
0 0 0
0 0 0
0 0 0
0 0 0
0 0 0
0 0 0
0 0 0
0 0 0
0 0 0
0 0 0
0 0 0
0 0 0
0 0 0
0 0 0
0 0 0
0 0 0
0 0 0
0 0 0
0 0 0
0 0 0
0 0 0
0 0 0
0 0 0
0 0 0
0 0 0
5.31871e-10 0.00149135 4.39877e-10
4.24334e-10 0.00149135 4.44995e-10
3.91213e-10 0.00149135 4.4521e-10
3.37622e-10 0.00149135 4.04312e-10
3.11589e-10 0.00149135 4.23666e-10
4.93433e-10 0.00149135 4.27266e-10
4.32913e-10 0.00149135 4.30453e-10
3.94055e-10 0.00149135 4.28167e-10
3.46479e-10 0.00149135 4.2448e-10
3.1019e-10 0.00149135 4.07286e-10
5.13282e-10 0.00149135 4.25416e-10
4.16671e-10 0.00149135 4.28366e-10
3.80387e-10 0.00149135 4.04446e-10
3.52004e-10 0.00149135 4.16283e-10
3.01244e-10 0.00149135 4.09958e-10
5.29571e-10 0.00149135 4.31783e-10
4.29353e-10 0.00149135 4.14003e-10
3.91193e-10 0.00149135 4.40764e-10
3.44537e-10 0.00149135 4.29674e-10
2.66882e-10 0.00149135 4.27696e-10
5.80575e-10 0.00149135 4.27607e-10
4.37136e-10 0.00149135 4.52136e-10
3.95085e-10 0.00149135 4.35181e-10
3.24652e-10 0.00149135 4.51406e-10
2.32697e-10 0.00149135 4.64793e-10
9.50049e-10 0.00298203 8.7155e-10
8.30783e-10 0.00298203 8.78367e-10
7.67611e-10 0.00298203 8.79472e-10
7.06797e-10 0.00298203 8.54774e-10
6.99207e-10 0.00298203 7.71009e-10
8.89039e-10 0.00298203 8.69357e-10
8.32914e-10 0.00298203 8.91533e-10
7.47091e-10 0.00298203 8.7462e-10
7.26653e-10 0.00298203 8.36372e-10
6.88405e-10 0.00298203 8.24025e-10
8.64283e-10 0.00298203 8.41146e-10
8.27721e-10 0.00298203 8.50809e-10
7.69373e-10 0.00298203 8.42847e-10
6.90364e-10 0.00298203 8.36225e-10
7.27657e-10 0.00298203 8.40938e-10
9.38694e-10 0.00298203 8.3974e-10
8.14005e-10 0.00298203 8.37735e-10
7.75902e-10 0.00298203 8.55758e-10
6.89455e-10 0.00298203 8.3577e-10
6.38146e-10 0.00298203 8.26155e-10
9.29255e-10 0.00298203 8.64816e-10
8.54432e-10 0.00298203 8.2012e-10
7.45285e-10 0.00298203 8.75555e-10
7.02563e-10 0.00298203 8.56589e-10
5.46373e-10 0.00298203 8.37528e-10
1.24235e-09 0.00447119 1.28562e-09
1.21823e-09 0.00447119 1.29095e-09
1.14014e-09 0.00447119 1.29341e-09
1.041e-09 0.00447119 1.25593e-09
1.0945e-09 0.00447119 1.27519e-09
1.24864e-09 0.00447119 1.23553e-09
1.16874e-09 0.00447119 1.26396e-09
1.12044e-09 0.00447119 1.23054e-09
1.05485e-09 0.00447119 1.25819e-09
1.17871e-09 0.00447119 1.23357e-09
1.25174e-09 0.00447119 1.26047e-09
1.15951e-09 0.00447119 1.24707e-09
1.10746e-09 0.00447119 1.25584e-09
1.09337e-09 0.00447118 1.23528e-09
1.07582e-09 0.00447119 1.21142e-09
1.267e-09 0.00447119 1.21559e-09
1.16849e-09 0.00447119 1.22083e-09
1.0979e-09 0.00447119 1.23038e-09
1.04619e-09 0.00447118 1.19979e-09
1.02137e-09 0.00447119 1.22628e-09
1.33318e-09 0.00447119 1.18886e-09
1.13447e-09 0.00447119 1.16528e-09
1.0975e-09 0.00447119 1.12503e-09
1.01665e-09 0.00447118 1.2385e-09
9.94936e-10 0.00447118 1.18251e-09
1.61623e-09 0.00595761 1.52117e-09
1.49252e-09 0.00595761 1.59742e-09
1.47646e-09 0.00595761 1.51265e-09
1.39756e-09 0.00595761 1.5807e-09
1.58262e-09 0.00595761 1.58455e-09
1.46148e-09 0.00595761 1.56184e-09
1.4756e-09 0.00595761 1.56367e-09
1.43706e-09 0.00595761 1.52874e-09
1.41642e-09 0.00595761 1.55656e-09
1.45275e-09 0.00595761 1.61296e-09
1.44265e-09 0.00595761 1.55649e-09
1.46518e-09 0.00595761 1.54551e-09
1.46363e-09 0.00595761 1.51025e-09
1.39323e-09 0.00595761 1.6143e-09
1.50338e-09 0.00595761 1.52211e-09
1.45604e-09 0.00595761 1.51539e-09
1.42304e-09 0.00595761 1.51501e-09
1.4161e-09 0.00595761 1.46228e-09
1.40484e-09 0.00595761 1.53345e-09
1.43418e-09 0.00595761 1.54933e-09
1.50083e-09 0.00595761 1.47913e-09
1.40647e-09 0.00595761 1.48887e-09
1.37087e-09 0.00595761 1.47513e-09
1.43737e-09 0.00595761 1.55756e-09
1.3726e-09 0.00595761 1.49208e-09
1.70101e-09 0.00743979 1.82225e-09
1.80873e-09 0.00743979 1.86808e-09
1.71904e-09 0.00743979 1.75905e-09
1.73458e-09 0.00743979 1.7766e-09
1.80048e-09 0.00743978 1.96075e-09
1.7652e-09 0.00743979 1.87113e-09
1.75001e-09 0.00743979 1.83413e-09
1.75882e-09 0.00743979 1.79646e-09
1.74304e-09 0.00743978 1.83928e-09
1.74435e-09 0.00743978 1.86394e-09
1.76721e-09 0.00743979 1.77193e-09
1.69025e-09 0.00743979 1.81096e-09
1.79608e-09 0.00743978 1.77529e-09
1.72118e-09 0.00743978 1.82389e-09
1.76998e-09 0.00743978 1.92138e-09
1.61968e-09 0.00743978 1.83999e-09
1.73754e-09 0.00743978 1.78289e-09
1.71552e-09 0.00743978 1.88056e-09
1.69194e-09 0.00743978 1.89875e-09
1.86989e-09 0.00743978 1.79616e-09
1.73895e-09 0.00743978 1.78731e-09
1.67871e-09 0.00743978 1.90647e-09
1.64388e-09 0.00743978 1.80284e-09
1.6989e-09 0.00743978 1.81959e-09
1.76866e-09 0.00743978 1.94435e-09
2.15527e-09 0.00891596 2.1208e-09
1.93794e-09 0.00891596 2.06185e-09
1.93259e-09 0.00891596 1.99632e-09
1.96e-09 0.00891596 2.00654e-09
2.01355e-09 0.00891596 2.21581e-09
1.96578e-09 0.00891596 2.06468e-09
1.93729e-09 0.00891596 2.01857e-09
1.98056e-09 0.00891596 2.01942e-09
2.00377e-09 0.00891596 2.02021e-09
2.02524e-09 0.00891596 2.05363e-09
1.86572e-09 0.00891596 2.08029e-09
1.96449e-09 0.00891596 2.02346e-09
2.00287e-09 0.00891596 1.98708e-09
2.03059e-09 0.00891596 1.99473e-09
2.01776e-09 0.00891596 2.01111e-09
1.96928e-09 0.00891596 2.09349e-09
1.94667e-09 0.00891596 2.02007e-09
1.99328e-09 0.00891596 2.03952e-09
1.98233e-09 0.00891596 1.98289e-09
2.04933e-09 0.00891596 2.08111e-09
1.98613e-09 0.00891596 2.15273e-09
2.00358e-09 0.00891596 2.01355e-09
1.95914e-09 0.00891596 2.0482e-09
1.88052e-09 0.00891596 2.07769e-09
2.24114e-09 0.00891596 1.93728e-09
2.16212e-09 0.0103844 2.19435e-09
2.15056e-09 0.0103844 2.23104e-09
2.18275e-09 0.0103844 2.30962e-09
2.27965e-09 0.0103844 2.1245e-09
1.83878e-09 0.0103844 2.09397e-09
2.10403e-09 0.0103844 2.20883e-09
2.14908e-09 0.0103844 2.16409e-09
2.14701e-09 0.0103844 2.23402e-09
2.22138e-09 0.0103844 2.13227e-09
2.08173e-09 0.0103844 2.0756e-09
2.13739e-09 0.0103844 2.32151e-09
2.0754e-09 0.0103844 2.28754e-09
2.19508e-09 0.0103844 2.21286e-09
2.18488e-09 0.0103844 2.20933e-09
2.32755e-09 0.0103844 2.12536e-09
2.10038e-09 0.0103844 2.24919e-09
2.15013e-09 0.0103844 2.21567e-09
2.11753e-09 0.0103844 2.14764e-09
2.17413e-09 0.0103844 2.15862e-09
2.19558e-09 0.0103844 2.18018e-09
2.19881e-09 0.0103844 2.29212e-09
2.14323e-09 0.0103844 2.21841e-09
2.23924e-09 0.0103844 2.1652e-09
2.22957e-09 0.0103844 2.20495e-09
2.10846e-09 0.0103844 2.13448e-09
2.47975e-09 0.0118435 2.19788e-09
2.17846e-09 0.0118435 2.29473e-09
2.29306e-09 0.0118435 2.15036e-09
2.05638e-09 0.0118435 2.2623e-09
2.6228e-09 0.0118435 2.05531e-09
2.03983e-09 0.0118435 2.40403e-09
2.29436e-09 0.0118435 2.38304e-09
2.26283e-09 0.0118435 2.30446e-09
2.10849e-09 0.0118435 2.28461e-09
2.49235e-09 0.0118435 2.20255e-09
2.11667e-09 0.0118435 2.24147e-09
2.2378e-09 0.0118435 2.3354e-09
2.34701e-09 0.0118435 2.26498e-09
2.11966e-09 0.0118435 2.27551e-09
2.25046e-09 0.0118435 2.28509e-09
2.30036e-09 0.0118435 2.46019e-09
2.21056e-09 0.0118435 2.34564e-09
2.25845e-09 0.0118435 2.31996e-09
2.24356e-09 0.0118435 2.38357e-09
2.14114e-09 0.0118435 2.32491e-09
2.39809e-09 0.0118435 2.15033e-09
2.08529e-09 0.0118435 2.26733e-09
2.27368e-09 0.0118435 2.27334e-09
2.19582e-09 0.0118435 2.50497e-09
2.53332e-09 0.0118435 2.35408e-09
2.11471e-09 0.013292 2.30592e-09
2.29463e-09 0.013292 2.17772e-09
2.22866e-09 0.013292 2.16292e-09
1.98599e-09 0.013292 2.16154e-09
2.43459e-09 0.013292 2.11626e-09
2.32669e-09 0.013292 2.24218e-09
2.14597e-09 0.013292 2.16814e-09
2.10543e-09 0.013292 2.15495e-09
2.15215e-09 0.013292 2.17205e-09
2.14545e-09 0.013292 2.2467e-09
2.20903e-09 0.013292 2.32235e-09
2.10183e-09 0.013292 2.26892e-09
2.21204e-09 0.013292 2.22368e-09
2.12184e-09 0.013292 2.28723e-09
2.24371e-09 0.013292 2.43248e-09
2.21206e-09 0.013292 2.21415e-09
2.17513e-09 0.013292 2.3676e-09
2.20556e-09 0.013292 2.44871e-09
2.19318e-09 0.013292 2.44854e-09
2.1289e-09 0.013292 2.43842e-09
2.27379e-09 0.013292 2.30837e-09
2.30999e-09 0.013292 2.23005e-09
2.285e-09 0.013292 2.38429e-09
2.16769e-09 0.013292 2.48177e-09
1.95506e-09 0.013292 2.53018e-09
2.37441e-09 0.0147292 2.3982e-09
2.07451e-09 0.0147292 2.26523e-09
2.10811e-09 0.0147292 2.09985e-09
2.2121e-09 0.0147292 2.30327e-09
2.23985e-09 0.0147292 2.50999e-09
1.88778e-09 0.0147292 2.25195e-09
1.9737e-09 0.0147292 2.21228e-09
2.1322e-09 0.0147292 2.16676e-09
2.09065e-09 0.0147292 2.35325e-09
2.3397e-09 0.0147292 2.31867e-09
1.85669e-09 0.0147292 2.18967e-09
2.01232e-09 0.0147292 2.22307e-09
2.02066e-09 0.0147292 2.29037e-09
2.09905e-09 0.0147292 2.36062e-09
2.29103e-09 0.0147292 2.31638e-09
2.04253e-09 0.0147292 2.24018e-09
2.03763e-09 0.0147292 2.24969e-09
2.08138e-09 0.0147292 2.31558e-09
2.01818e-09 0.0147292 2.39914e-09
2.09248e-09 0.0147292 2.35414e-09
2.06646e-09 0.0147292 2.41369e-09
2.18607e-09 0.0147292 2.12425e-09
2.18335e-09 0.0147292 2.45855e-09
1.78576e-09 0.0147292 2.35781e-09
1.95212e-09 0.0147292 2.44029e-09
1.99378e-09 0.0161543 2.26899e-09
1.85664e-09 0.0161543 2.20124e-09
1.95473e-09 0.0161543 2.21236e-09
2.01677e-09 0.0161543 2.6255e-09
1.89263e-09 0.0161543 2.54379e-09
1.68666e-09 0.0161543 2.24754e-09
1.82424e-09 0.0161543 2.30129e-09
1.91034e-09 0.0161543 2.30207e-09
2.02271e-09 0.0161543 2.41831e-09
1.93941e-09 0.0161543 2.46765e-09
1.50247e-09 0.0161543 2.29381e-09
1.79836e-09 0.0161543 2.25515e-09
1.93871e-09 0.0161543 2.37539e-09
1.81506e-09 0.0161543 2.44646e-09
2.2702e-09 0.0161543 2.52757e-09
1.69003e-09 0.0161543 2.30166e-09
1.82249e-09 0.0161543 2.23171e-09
1.77751e-09 0.0161543 2.36629e-09
1.86685e-09 0.0161543 2.47784e-09
1.95371e-09 0.0161543 2.61573e-09
1.76512e-09 0.0161543 2.30437e-09
1.77302e-09 0.0161543 2.47732e-09
1.9281e-09 0.0161543 2.19314e-09
2.17417e-09 0.0161543 2.62086e-09
1.17315e-09 0.0161543 2.61822e-09
1.61376e-09 0.0175666 2.39944e-09
1.60632e-09 0.0175666 2.35949e-09
1.60914e-09 0.0175666 2.59857e-09
1.66298e-09 0.0175666 2.32113e-09
1.18023e-09 0.0175666 2.17998e-09
1.36038e-09 0.0175666 2.56245e-09
1.55037e-09 0.0175666 2.43945e-09
1.70296e-09 0.0175666 2.66108e-09
1.52875e-09 0.0175666 2.4989e-09
1.6512e-09 0.0175666 2.58804e-09
1.32465e-09 0.0175666 2.45499e-09
1.50199e-09 0.0175666 2.4692e-09
1.64191e-09 0.0175666 2.45073e-09
1.54892e-09 0.0175666 2.75385e-09
1.50082e-09 0.0175666 2.63585e-09
1.62401e-09 0.0175666 2.44393e-09
1.43555e-09 0.0175666 2.47922e-09
1.75403e-09 0.0175666 2.60928e-09
1.58342e-09 0.0175666 2.73407e-09
1.53398e-09 0.0175666 2.67127e-09
1.67482e-09 0.0175666 2.47066e-09
1.50473e-09 0.0175666 2.52339e-09
1.74372e-09 0.0175666 2.49448e-09
1.62556e-09 0.0175666 2.46463e-09
1.42147e-09 0.0175666 2.53335e-09
1.33191e-09 0.0189653 2.66395e-09
1.30213e-09 0.0189653 2.46858e-09
1.21934e-09 0.0189653 2.54871e-09
1.25681e-09 0.0189653 2.21102e-09
1.83111e-09 0.0189653 2.42019e-09
1.00924e-09 0.0189653 2.55117e-09
1.17917e-09 0.0189653 2.59063e-09
1.17507e-09 0.0189653 2.3987e-09
1.3645e-09 0.0189653 2.45257e-09
1.39357e-09 0.0189653 2.52713e-09
1.04922e-09 0.0189653 2.58968e-09
1.10424e-09 0.0189653 2.60519e-09
1.49623e-09 0.0189653 2.73584e-09
1.30334e-09 0.0189653 2.74075e-09
1.08933e-09 0.0189653 2.57051e-09
8.09885e-10 0.0189653 2.64257e-09
1.41754e-09 0.0189653 2.72465e-09
1.47308e-09 0.0189653 2.8223e-09
1.23086e-09 0.0189653 2.60165e-09
1.1966e-09 0.0189653 2.61962e-09
1.17087e-09 0.0189653 2.84532e-09
1.27927e-09 0.0189653 2.61408e-09
1.5865e-09 0.0189653 2.85459e-09
1.20128e-09 0.0189653 2.8486e-09
1.36418e-09 0.0189653 2.51944e-09
4.95732e-10 0.0203489 2.58137e-09
6.93364e-10 0.0203489 2.5807e-09
8.87507e-10 0.0203489 2.21606e-09
9.27749e-10 0.0203489 2.37947e-09
9.00001e-10 0.0203489 2.63173e-09
7.64838e-10 0.0203489 2.64555e-09
7.66538e-10 0.0203489 2.65029e-09
8.3969e-10 0.0203489 2.52592e-09
9.67135e-10 0.0203489 2.55015e-09
6.75666e-10 0.0203489 2.50185e-09
5.8842e-10 0.0203489 2.65934e-09
8.69145e-10 0.0203489 2.7657e-09
9.3951e-10 0.0203489 2.86339e-09
7.9425e-10 0.0203489 2.39196e-09
8.10425e-10 0.0203489 2.48048e-09
6.22634e-10 0.0203489 2.96817e-09
8.62578e-10 0.0203489 2.89825e-09
1.18685e-09 0.0203489 2.74134e-09
8.21783e-10 0.0203489 2.57319e-09
6.16471e-10 0.0203489 2.51564e-09
9.54348e-10 0.0203489 3.13152e-09
1.13249e-09 0.0203489 3.09876e-09
1.05503e-09 0.0203489 2.69703e-09
9.66927e-10 0.0203489 2.65966e-09
9.7697e-10 0.0203489 2.9214e-09
-1.04686e-10 0.0217159 2.43756e-09
2.38906e-10 0.0217159 2.84315e-09
3.61714e-10 0.0217159 2.13556e-09
5.93208e-10 0.0217159 2.38766e-09
8.25501e-10 0.0217159 2.32625e-09
4.91873e-12 0.0217159 2.64974e-09
2.1332e-10 0.0217159 2.52007e-09
4.75867e-10 0.0217159 2.63132e-09
3.88779e-10 0.0217159 2.48957e-09
6.67869e-10 0.0217159 2.35943e-09
1.52524e-10 0.0217159 2.81903e-09
4.36027e-10 0.0217159 2.50652e-09
4.67862e-10 0.0217159 2.58104e-09
3.30214e-10 0.0217159 2.36917e-09
3.18972e-10 0.0217159 2.27553e-09
4.18285e-10 0.0217159 2.77062e-09
1.8032e-10 0.0217159 2.76044e-09
4.4458e-10 0.0217159 2.55403e-09
4.26017e-10 0.0217159 2.4743e-09
6.28953e-10 0.0217159 2.55419e-09
7.9725e-10 0.0217159 2.67165e-09
1.43514e-10 0.0217159 2.59995e-09
4.78394e-10 0.0217159 2.96526e-09
3.47785e-10 0.0217159 2.58565e-09
7.22062e-10 0.0217159 2.57603e-09
-8.2964e-10 0.0230651 2.5274e-09
-7.59197e-11 0.0230651 2.50679e-09
-6.247e-11 0.0230651 2.46314e-09
-5.5846e-11 0.0230651 2.20983e-09
3.26562e-10 0.0230651 2.38853e-09
-5.63413e-10 0.0230651 2.47231e-09
-4.73466e-12 0.0230651 2.45083e-09
1.16125e-11 0.0230651 2.41815e-09
-4.18319e-11 0.0230651 2.13299e-09
3.06617e-10 0.0230651 2.27213e-09
-4.06649e-10 0.0230651 2.51433e-09
-2.08544e-10 0.0230651 2.47923e-09
6.35344e-11 0.0230651 2.44583e-09
-3.95182e-11 0.0230651 2.56409e-09
7.27294e-11 0.0230651 2.43615e-09
-7.64482e-11 0.0230651 2.38364e-09
-2.5371e-10 0.0230651 2.48141e-09
-6.72395e-12 0.0230651 2.63368e-09
5.37126e-11 0.0230651 2.68186e-09
3.67827e-10 0.0230651 2.5122e-09
-7.15449e-10 0.0230651 2.37227e-09
-3.69615e-12 0.0230651 2.34635e-09
-3.36108e-10 0.0230651 2.15913e-09
3.24146e-10 0.0230651 2.63171e-09
5.62788e-10 0.0230651 2.66228e-09
-7.93504e-10 0.0243955 2.88504e-09
-4.80336e-10 0.0243955 2.52593e-09
-1.17513e-10 0.0243955 2.97839e-09
-7.04965e-10 0.0243955 2.24976e-09
-1.03226e-10 0.0243955 2.45954e-09
-4.74766e-10 0.0243955 2.58665e-09
-6.27657e-10 0.0243955 2.60752e-09
-3.74879e-10 0.0243955 2.49055e-09
-6.07737e-10 0.0243955 2.5828e-09
1.44396e-10 0.0243955 2.41612e-09
-6.37655e-10 0.0243955 2.29811e-09
-4.24189e-10 0.0243955 2.202e-09
-4.74679e-10 0.0243955 2.4866e-09
-3.70804e-10 0.0243955 2.54988e-09
-5.31934e-10 0.0243955 2.69569e-09
-4.88122e-10 0.0243955 2.36134e-09
-6.21393e-10 0.0243955 2.24524e-09
-3.21626e-10 0.0243955 2.4507e-09
-1.27721e-10 0.0243955 2.53558e-09
-3.57709e-10 0.0243955 2.68325e-09
-2.82823e-10 0.0243955 2.14648e-09
-8.87586e-10 0.0243955 2.47344e-09
-4.17559e-10 0.0243955 2.28599e-09
1.075e-10 0.0243955 2.63167e-09
-4.86462e-10 0.0243955 2.47159e-09
-7.08031e-10 0.0257072 2.50389e-09
-9.70221e-10 0.0257072 2.54572e-09
-6.97801e-10 0.0257072 2.35753e-09
-7.37743e-10 0.0257072 2.44661e-09
-1.16257e-10 0.0257072 2.67195e-09
-6.36669e-10 0.0257072 2.27942e-09
-1.00189e-09 0.0257072 2.30569e-09
-6.88885e-10 0.0257072 2.56133e-09
-7.6406e-10 0.0257072 2.54166e-09
3.91607e-11 0.0257072 2.48513e-09
-9.65024e-10 0.0257072 2.56386e-09
-9.36985e-10 0.0257072 2.27516e-09
-7.09287e-10 0.0257072 2.35295e-09
-4.44349e-10 0.0257072 2.53252e-09
-3.29894e-10 0.0257072 2.53955e-09
-1.21461e-09 0.0257072 2.2338e-09
-1.04421e-09 0.0257072 2.38136e-09
-5.60521e-10 0.0257072 2.46375e-09
-4.37919e-10 0.0257072 2.28012e-09
-5.34972e-10 0.0257072 2.51861e-09
-8.15345e-10 0.0257072 2.37263e-09
-8.05173e-10 0.0257072 2.27298e-09
-5.10265e-10 0.0257072 2.23871e-09
-3.25784e-10 0.0257072 2.30982e-09
-2.23425e-10 0.0257072 2.27703e-09
-1.91943e-09 0.0270006 2.09303e-09
-1.0694e-09 0.0270007 2.4726e-09
-1.12412e-09 0.0270006 2.49235e-09
-6.7269e-10 0.0270006 1.94765e-09
-9.01021e-11 0.0270006 2.16721e-09
-1.54771e-09 0.0270006 2.30022e-09
-1.25268e-09 0.0270006 2.17871e-09
-8.01822e-10 0.0270006 2.29812e-09
-7.09328e-10 0.0270006 2.32215e-09
-3.70595e-10 0.0270007 1.963e-09
-1.7758e-09 0.0270006 2.44275e-09
-1.09248e-09 0.0270006 2.40156e-09
-8.60805e-10 0.0270006 2.3021e-09
-8.27722e-10 0.0270006 2.05893e-09
-3.40394e-10 0.0270006 2.0484e-09
-1.31458e-09 0.0270006 2.42949e-09
-1.18024e-09 0.0270006 2.48817e-09
-8.51281e-10 0.0270006 2.55116e-09
-6.61699e-10 0.0270006 2.23598e-09
-5.36648e-10 0.0270006 2.25077e-09
-1.71127e-09 0.0270006 2.60807e-09
-1.15885e-09 0.0270006 2.06164e-09
-9.41391e-10 0.0270006 2.32996e-09
-5.82855e-10 0.0270006 2.13396e-09
-7.23811e-10 0.0270006 2.64331e-09
-1.40006e-09 0.0282765 2.92249e-09
-1.19949e-09 0.0282765 2.97365e-09
-7.1197e-10 0.0282765 2.89191e-09
-1.10183e-09 0.0282765 2.62352e-09
-4.36585e-10 0.0282765 2.29442e-09
-1.37311e-09 0.0282765 2.66436e-09
-1.2514e-09 0.0282765 2.60442e-09
-1.10556e-09 0.0282765 2.53207e-09
-8.71982e-10 0.0282765 2.22116e-09
-6.78224e-10 0.0282765 2.21845e-09
-1.45508e-09 0.0282765 2.46983e-09
-1.42897e-09 0.0282765 2.48967e-09
-9.37276e-10 0.0282765 2.40901e-09
-8.12447e-10 0.0282765 2.16717e-09
-2.05507e-10 0.0282765 1.9412e-09
-1.27646e-09 0.0282765 2.56121e-09
-1.3822e-09 0.0282765 2.31696e-09
-1.24433e-09 0.0282765 2.65282e-09
-8.0925e-10 0.0282765 2.45065e-09
-6.45143e-10 0.0282765 2.33086e-09
-9.9326e-10 0.0282765 2.01593e-09
-1.50508e-09 0.0282765 2.54819e-09
-1.11261e-09 0.0282765 2.61992e-09
-8.5224e-10 0.0282765 2.67799e-09
-4.7388e-10 0.0282765 2.52116e-09
-5.81808e-10 0.0295345 2.79628e-09
-1.28546e-09 0.0295345 2.85413e-09
-8.36168e-10 0.0295345 2.76063e-09
-1.13297e-09 0.0295345 2.5483e-09
-2.93504e-10 0.0295345 2.9846e-09
-1.67142e-09 0.0295345 2.96833e-09
-1.00945e-09 0.0295345 2.73955e-09
-1.03476e-09 0.0295345 2.86149e-09
-1.07614e-09 0.0295345 2.73165e-09
-4.38855e-10 0.0295345 2.65263e-09
-1.38614e-09 0.0295345 2.54929e-09
-1.47498e-09 0.0295345 2.70155e-09
-1.10999e-09 0.0295345 2.84952e-09
-8.82603e-10 0.0295345 2.64532e-09
-3.39684e-11 0.0295345 2.58171e-09
-1.60728e-09 0.0295345 2.72008e-09
-1.33995e-09 0.0295345 2.77341e-09
-1.13749e-09 0.0295345 2.79104e-09
-9.09987e-10 0.0295345 2.42459e-09
8.05327e-11 0.0295345 2.58106e-09
-1.0859e-09 0.0295345 2.78552e-09
-1.38711e-09 0.0295345 2.35205e-09
-7.55847e-10 0.0295345 3.40716e-09
-5.46004e-10 0.0295345 2.74401e-09
-9.66564e-10 0.0295345 2.9679e-09
-8.64345e-10 0.0307732 2.52051e-09
-8.9663e-10 0.0307732 3.19542e-09
-1.08218e-09 0.0307732 2.32301e-09
-9.13108e-10 0.0307732 3.09308e-09
-3.07147e-10 0.0307732 3.20903e-09
-9.81692e-10 0.0307732 3.1958e-09
-9.76195e-10 0.0307732 2.79773e-09
-8.89279e-10 0.0307732 3.01985e-09
-7.38955e-10 0.0307732 3.02003e-09
-5.87215e-10 0.0307732 3.33244e-09
-1.743e-09 0.0307732 2.9271e-09
-1.09235e-09 0.0307732 3.34194e-09
-8.9095e-10 0.0307732 3.09139e-09
-7.52659e-10 0.0307732 3.1392e-09
2.14992e-10 0.0307732 3.32473e-09
-1.10664e-09 0.0307732 2.95687e-09
-1.16129e-09 0.0307732 3.0664e-09
-1.04878e-09 0.0307732 3.38095e-09
-6.81818e-10 0.0307732 3.19546e-09
-6.34781e-12 0.0307732 3.17709e-09
-8.22639e-10 0.0307732 3.22339e-09
-1.20322e-09 0.0307732 3.39189e-09
-1.0737e-09 0.0307732 3.17145e-09
-5.70785e-10 0.0307732 3.58673e-09
-1.34229e-10 0.0307732 3.22119e-09
-1.0411e-09 0.0319903 3.45954e-09
-8.86805e-10 0.0319903 2.99149e-09
-8.99209e-10 0.0319903 3.39872e-09
-4.74364e-10 0.0319903 3.12757e-09
-3.68477e-10 0.0319903 3.2465e-09
-7.35826e-10 0.0319903 3.39434e-09
-9.69575e-10 0.0319903 3.32283e-09
-5.76961e-10 0.0319903 3.46699e-09
-5.17685e-10 0.0319903 3.53417e-09
-3.25051e-10 0.0319903 3.514e-09
-9.35713e-10 0.0319903 3.35333e-09
-8.59846e-10 0.0319903 3.41836e-09
-7.54677e-10 0.0319903 3.69062e-09
-7.3775e-10 0.0319903 3.50308e-09
3.82128e-10 0.0319903 3.58644e-09
-1.03536e-09 0.0319903 3.49145e-09
-8.46915e-10 0.0319903 3.66296e-09
-8.51537e-10 0.0319903 3.34416e-09
-6.48134e-10 0.0319903 3.67305e-09
3.12722e-10 0.0319903 3.73311e-09
-9.47462e-10 0.0319903 3.55655e-09
-8.23058e-10 0.0319903 3.6085e-09
-4.7024e-10 0.0319903 3.80707e-09
-8.90846e-10 0.0319903 3.57996e-09