<?xml version="1.0"?>
<VTKFile type="UnstructuredGrid" version="0.1" byte_order="LittleEndian">
<UnstructuredGrid>
<Piece NumberOfPoints="1025" NumberOfCells="640">
<Points>
<DataArray type="Float32" NumberOfComponents="3" format="ascii">
0 0 0
0.025 0 0
0.05 0 0
0.075 0 0
0.1 0 0
0 0.025 0
0.025 0.025 0
0.05 0.025 0
0.075 0.025 0
0.1 0.025 0
0 0.05 0
0.025 0.05 0
0.05 0.05 0
0.075 0.05 0
0.1 0.05 0
0 0.075 0
0.025 0.075 0
0.05 0.075 0
0.075 0.075 0
0.1 0.075 0
0 0.1 0
0.025 0.1 0
0.05 0.1 0
0.075 0.1 0
0.1 0.1 0
0 0 0.025
0.025 0 0.025
0.05 0 0.025
0.075 0 0.025
0.1 0 0.025
0 0.025 0.025
0.025 0.025 0.025
0.05 0.025 0.025
0.075 0.025 0.025
0.1 0.025 0.025
0 0.05 0.025
0.025 0.05 0.025
0.05 0.05 0.025
0.075 0.05 0.025
0.1 0.05 0.025
0 0.075 0.025
0.025 0.075 0.025
0.05 0.075 0.025
0.075 0.075 0.025
0.1 0.075 0.025
0 0.1 0.025
0.025 0.1 0.025
0.05 0.1 0.025
0.075 0.1 0.025
0.1 0.1 0.025
0 0 0.05
0.025 0 0.05
0.05 0 0.05
0.075 0 0.05
0.1 0 0.05
0 0.025 0.05
0.025 0.025 0.05
0.05 0.025 0.05
0.075 0.025 0.05
0.1 0.025 0.05
0 0.05 0.05
0.025 0.05 0.05
0.05 0.05 0.05
0.075 0.05 0.05
0.1 0.05 0.05
0 0.075 0.05
0.025 0.075 0.05
0.05 0.075 0.05
0.075 0.075 0.05
0.1 0.075 0.05
0 0.1 0.05
0.025 0.1 0.05
0.05 0.1 0.05
0.075 0.1 0.05
0.1 0.1 0.05
0 0 0.075
0.025 0 0.075
0.05 0 0.075
0.075 0 0.075
0.1 0 0.075
0 0.025 0.075
0.025 0.025 0.075
0.05 0.025 0.075
0.075 0.025 0.075
0.1 0.025 0.075
0 0.05 0.075
0.025 0.05 0.075
0.05 0.05 0.075
0.075 0.05 0.075
0.1 0.05 0.075
0 0.075 0.075
0.025 0.075 0.075
0.05 0.075 0.075
0.075 0.075 0.075
0.1 0.075 0.075
0 0.1 0.075
0.025 0.1 0.075
0.05 0.1 0.075
0.075 0.1 0.075
0.1 0.1 0.075
0 0 0.1
0.025 0 0.1
0.05 0 0.1
0.075 0 0.1
0.1 0 0.1
0 0.025 0.1
0.025 0.025 0.1
0.05 0.025 0.1
0.075 0.025 0.1
0.1 0.025 0.1
0 0.05 0.1
0.025 0.05 0.1
0.05 0.05 0.1
0.075 0.05 0.1
0.1 0.05 0.1
0 0.075 0.1
0.025 0.075 0.1
0.05 0.075 0.1
0.075 0.075 0.1
0.1 0.075 0.1
0 0.1 0.1
0.025 0.1 0.1
0.05 0.1 0.1
0.075 0.1 0.1
0.1 0.1 0.1
0 0 0.125
0.025 0 0.125
0.05 0 0.125
0.075 0 0.125
0.1 0 0.125
0 0.025 0.125
0.025 0.025 0.125
0.05 0.025 0.125
0.075 0.025 0.125
0.1 0.025 0.125
0 0.05 0.125
0.025 0.05 0.125
0.05 0.05 0.125
0.075 0.05 0.125
0.1 0.05 0.125
0 0.075 0.125
0.025 0.075 0.125
0.05 0.075 0.125
0.075 0.075 0.125
0.1 0.075 0.125
0 0.1 0.125
0.025 0.1 0.125
0.05 0.1 0.125
0.075 0.1 0.125
0.1 0.1 0.125
0 0 0.15
0.025 0 0.15
0.05 0 0.15
0.075 0 0.15
0.1 0 0.15
0 0.025 0.15
0.025 0.025 0.15
0.05 0.025 0.15
0.075 0.025 0.15
0.1 0.025 0.15
0 0.05 0.15
0.025 0.05 0.15
0.05 0.05 0.15
0.075 0.05 0.15
0.1 0.05 0.15
0 0.075 0.15
0.025 0.075 0.15
0.05 0.075 0.15
0.075 0.075 0.15
0.1 0.075 0.15
0 0.1 0.15
0.025 0.1 0.15
0.05 0.1 0.15
0.075 0.1 0.15
0.1 0.1 0.15
0 0 0.175
0.025 0 0.175
0.05 0 0.175
0.075 0 0.175
0.1 0 0.175
0 0.025 0.175
0.025 0.025 0.175
0.05 0.025 0.175
0.075 0.025 0.175
0.1 0.025 0.175
0 0.05 0.175
0.025 0.05 0.175
0.05 0.05 0.175
0.075 0.05 0.175
0.1 0.05 0.175
0 0.075 0.175
0.025 0.075 0.175
0.05 0.075 0.175
0.075 0.075 0.175
0.1 0.075 0.175
0 0.1 0.175
0.025 0.1 0.175
0.05 0.1 0.175
0.075 0.1 0.175
0.1 0.1 0.175
0 0 0.2
0.025 0 0.2
0.05 0 0.2
0.075 0 0.2
0.1 0 0.2
0 0.025 0.2
0.025 0.025 0.2
0.05 0.025 0.2
0.075 0.025 0.2
0.1 0.025 0.2
0 0.05 0.2
0.025 0.05 0.2
0.05 0.05 0.2
0.075 0.05 0.2
0.1 0.05 0.2
0 0.075 0.2
0.025 0.075 0.2
0.05 0.075 0.2
0.075 0.075 0.2
0.1 0.075 0.2
0 0.1 0.2
0.025 0.1 0.2
0.05 0.1 0.2
0.075 0.1 0.2
0.1 0.1 0.2
0 0 0.225
0.025 0 0.225
0.05 0 0.225
0.075 0 0.225
0.1 0 0.225
0 0.025 0.225
0.025 0.025 0.225
0.05 0.025 0.225
0.075 0.025 0.225
0.1 0.025 0.225
0 0.05 0.225
0.025 0.05 0.225
0.05 0.05 0.225
0.075 0.05 0.225
0.1 0.05 0.225
0 0.075 0.225
0.025 0.075 0.225
0.05 0.075 0.225
0.075 0.075 0.225
0.1 0.075 0.225
0 0.1 0.225
0.025 0.1 0.225
0.05 0.1 0.225
0.075 0.1 0.225
0.1 0.1 0.225
0 0 0.25
0.025 0 0.25
0.05 0 0.25
0.075 0 0.25
0.1 0 0.25
0 0.025 0.25
0.025 0.025 0.25
0.05 0.025 0.25
0.075 0.025 0.25
0.1 0.025 0.25
0 0.05 0.25
0.025 0.05 0.25
0.05 0.05 0.25
0.075 0.05 0.25
0.1 0.05 0.25
0 0.075 0.25
0.025 0.075 0.25
0.05 0.075 0.25
0.075 0.075 0.25
0.1 0.075 0.25
0 0.1 0.25
0.025 0.1 0.25
0.05 0.1 0.25
0.075 0.1 0.25
0.1 0.1 0.25
0 0 0.275
0.025 0 0.275
0.05 0 0.275
0.075 0 0.275
0.1 0 0.275
0 0.025 0.275
0.025 0.025 0.275
0.05 0.025 0.275
0.075 0.025 0.275
0.1 0.025 0.275
0 0.05 0.275
0.025 0.05 0.275
0.05 0.05 0.275
0.075 0.05 0.275
0.1 0.05 0.275
0 0.075 0.275
0.025 0.075 0.275
0.05 0.075 0.275
0.075 0.075 0.275
0.1 0.075 0.275
0 0.1 0.275
0.025 0.1 0.275
0.05 0.1 0.275
0.075 0.1 0.275
0.1 0.1 0.275
0 0 0.3
0.025 0 0.3
0.05 0 0.3
0.075 0 0.3
0.1 0 0.3
0 0.025 0.3
0.025 0.025 0.3
0.05 0.025 0.3
0.075 0.025 0.3
0.1 0.025 0.3
0 0.05 0.3
0.025 0.05 0.3
0.05 0.05 0.3
0.075 0.05 0.3
0.1 0.05 0.3
0 0.075 0.3
0.025 0.075 0.3
0.05 0.075 0.3
0.075 0.075 0.3
0.1 0.075 0.3
0 0.1 0.3
0.025 0.1 0.3
0.05 0.1 0.3
0.075 0.1 0.3
0.1 0.1 0.3
0 0 0.325
0.025 0 0.325
0.05 0 0.325
0.075 0 0.325
0.1 0 0.325
0 0.025 0.325
0.025 0.025 0.325
0.05 0.025 0.325
0.075 0.025 0.325
0.1 0.025 0.325
0 0.05 0.325
0.025 0.05 0.325
0.05 0.05 0.325
0.075 0.05 0.325
0.1 0.05 0.325
0 0.075 0.325
0.025 0.075 0.325
0.05 0.075 0.325
0.075 0.075 0.325
0.1 0.075 0.325
0 0.1 0.325
0.025 0.1 0.325
0.05 0.1 0.325
0.075 0.1 0.325
0.1 0.1 0.325
0 0 0.35
0.025 0 0.35
0.05 0 0.35
0.075 0 0.35
0.1 0 0.35
0 0.025 0.35
0.025 0.025 0.35
0.05 0.025 0.35
0.075 0.025 0.35
0.1 0.025 0.35
0 0.05 0.35
0.025 0.05 0.35
0.05 0.05 0.35
0.075 0.05 0.35
0.1 0.05 0.35
0 0.075 0.35
0.025 0.075 0.35
0.05 0.075 0.35
0.075 0.075 0.35
0.1 0.075 0.35
0 0.1 0.35
0.025 0.1 0.35
0.05 0.1 0.35
0.075 0.1 0.35
0.1 0.1 0.35
0 0 0.375
0.025 0 0.375
0.05 0 0.375
0.075 0 0.375
0.1 0 0.375
0 0.025 0.375
0.025 0.025 0.375
0.05 0.025 0.375
0.075 0.025 0.375
0.1 0.025 0.375
0 0.05 0.375
0.025 0.05 0.375
0.05 0.05 0.375
0.075 0.05 0.375
0.1 0.05 0.375
0 0.075 0.375
0.025 0.075 0.375
0.05 0.075 0.375
0.075 0.075 0.375
0.1 0.075 0.375
0 0.1 0.375
0.025 0.1 0.375
0.05 0.1 0.375
0.075 0.1 0.375
0.1 0.1 0.375
0 0 0.4
0.025 0 0.4
0.05 0 0.4
0.075 0 0.4
0.1 0 0.4
0 0.025 0.4
0.025 0.025 0.4
0.05 0.025 0.4
0.075 0.025 0.4
0.1 0.025 0.4
0 0.05 0.4
0.025 0.05 0.4
0.05 0.05 0.4
0.075 0.05 0.4
0.1 0.05 0.4
0 0.075 0.4
0.025 0.075 0.4
0.05 0.075 0.4
0.075 0.075 0.4
0.1 0.075 0.4
0 0.1 0.4
0.025 0.1 0.4
0.05 0.1 0.4
0.075 0.1 0.4
0.1 0.1 0.4
0 0 0.425
0.025 0 0.425
0.05 0 0.425
0.075 0 0.425
0.1 0 0.425
0 0.025 0.425
0.025 0.025 0.425
0.05 0.025 0.425
0.075 0.025 0.425
0.1 0.025 0.425
0 0.05 0.425
0.025 0.05 0.425
0.05 0.05 0.425
0.075 0.05 0.425
0.1 0.05 0.425
0 0.075 0.425
0.025 0.075 0.425
0.05 0.075 0.425
0.075 0.075 0.425
0.1 0.075 0.425
0 0.1 0.425
0.025 0.1 0.425
0.05 0.1 0.425
0.075 0.1 0.425
0.1 0.1 0.425
0 0 0.45
0.025 0 0.45
0.05 0 0.45
0.075 0 0.45
0.1 0 0.45
0 0.025 0.45
0.025 0.025 0.45
0.05 0.025 0.45
0.075 0.025 0.45
0.1 0.025 0.45
0 0.05 0.45
0.025 0.05 0.45
0.05 0.05 0.45
0.075 0.05 0.45
0.1 0.05 0.45
0 0.075 0.45
0.025 0.075 0.45
0.05 0.075 0.45
0.075 0.075 0.45
0.1 0.075 0.45
0 0.1 0.45
0.025 0.1 0.45
0.05 0.1 0.45
0.075 0.1 0.45
0.1 0.1 0.45
0 0 0.475
0.025 0 0.475
0.05 0 0.475
0.075 0 0.475
0.1 0 0.475
0 0.025 0.475
0.025 0.025 0.475
0.05 0.025 0.475
0.075 0.025 0.475
0.1 0.025 0.475
0 0.05 0.475
0.025 0.05 0.475
0.05 0.05 0.475
0.075 0.05 0.475
0.1 0.05 0.475
0 0.075 0.475
0.025 0.075 0.475
0.05 0.075 0.475
0.075 0.075 0.475
0.1 0.075 0.475
0 0.1 0.475
0.025 0.1 0.475
0.05 0.1 0.475
0.075 0.1 0.475
0.1 0.1 0.475
0 0 0.5
0.025 0 0.5
0.05 0 0.5
0.075 0 0.5
0.1 0 0.5
0 0.025 0.5
0.025 0.025 0.5
0.05 0.025 0.5
0.075 0.025 0.5
0.1 0.025 0.5
0 0.05 0.5
0.025 0.05 0.5
0.05 0.05 0.5
0.075 0.05 0.5
0.1 0.05 0.5
0 0.075 0.5
0.025 0.075 0.5
0.05 0.075 0.5
0.075 0.075 0.5
0.1 0.075 0.5
0 0.1 0.5
0.025 0.1 0.5
0.05 0.1 0.5
0.075 0.1 0.5
0.1 0.1 0.5
0 0 0.525
0.025 0 0.525
0.05 0 0.525
0.075 0 0.525
0.1 0 0.525
0 0.025 0.525
0.025 0.025 0.525
0.05 0.025 0.525
0.075 0.025 0.525
0.1 0.025 0.525
0 0.05 0.525
0.025 0.05 0.525
0.05 0.05 0.525
0.075 0.05 0.525
0.1 0.05 0.525
0 0.075 0.525
0.025 0.075 0.525
0.05 0.075 0.525
0.075 0.075 0.525
0.1 0.075 0.525
0 0.1 0.525
0.025 0.1 0.525
0.05 0.1 0.525
0.075 0.1 0.525
0.1 0.1 0.525
0 0 0.55
0.025 0 0.55
0.05 0 0.55
0.075 0 0.55
0.1 0 0.55
0 0.025 0.55
0.025 0.025 0.55
0.05 0.025 0.55
0.075 0.025 0.55
0.1 0.025 0.55
0 0.05 0.55
0.025 0.05 0.55
0.05 0.05 0.55
0.075 0.05 0.55
0.1 0.05 0.55
0 0.075 0.55
0.025 0.075 0.55
0.05 0.075 0.55
0.075 0.075 0.55
0.1 0.075 0.55
0 0.1 0.55
0.025 0.1 0.55
0.05 0.1 0.55
0.075 0.1 0.55
0.1 0.1 0.55
0 0 0.575
0.025 0 0.575
0.05 0 0.575
0.075 0 0.575
0.1 0 0.575
0 0.025 0.575
0.025 0.025 0.575
0.05 0.025 0.575
0.075 0.025 0.575
0.1 0.025 0.575
0 0.05 0.575
0.025 0.05 0.575
0.05 0.05 0.575
0.075 0.05 0.575
0.1 0.05 0.575
0 0.075 0.575
0.025 0.075 0.575
0.05 0.075 0.575
0.075 0.075 0.575
0.1 0.075 0.575
0 0.1 0.575
0.025 0.1 0.575
0.05 0.1 0.575
0.075 0.1 0.575
0.1 0.1 0.575
0 0 0.6
0.025 0 0.6
0.05 0 0.6
0.075 0 0.6
0.1 0 0.6
0 0.025 0.6
0.025 0.025 0.6
0.05 0.025 0.6
0.075 0.025 0.6
0.1 0.025 0.6
0 0.05 0.6
0.025 0.05 0.6
0.05 0.05 0.6
0.075 0.05 0.6
0.1 0.05 0.6
0 0.075 0.6
0.025 0.075 0.6
0.05 0.075 0.6
0.075 0.075 0.6
0.1 0.075 0.6
0 0.1 0.6
0.025 0.1 0.6
0.05 0.1 0.6
0.075 0.1 0.6
0.1 0.1 0.6
0 0 0.625
0.025 0 0.625
0.05 0 0.625
0.075 0 0.625
0.1 0 0.625
0 0.025 0.625
0.025 0.025 0.625
0.05 0.025 0.625
0.075 0.025 0.625
0.1 0.025 0.625
0 0.05 0.625
0.025 0.05 0.625
0.05 0.05 0.625
0.075 0.05 0.625
0.1 0.05 0.625
0 0.075 0.625
0.025 0.075 0.625
0.05 0.075 0.625
0.075 0.075 0.625
0.1 0.075 0.625
0 0.1 0.625
0.025 0.1 0.625
0.05 0.1 0.625
0.075 0.1 0.625
0.1 0.1 0.625
0 0 0.65
0.025 0 0.65
0.05 0 0.65
0.075 0 0.65
0.1 0 0.65
0 0.025 0.65
0.025 0.025 0.65
0.05 0.025 0.65
0.075 0.025 0.65
0.1 0.025 0.65
0 0.05 0.65
0.025 0.05 0.65
0.05 0.05 0.65
0.075 0.05 0.65
0.1 0.05 0.65
0 0.075 0.65
0.025 0.075 0.65
0.05 0.075 0.65
0.075 0.075 0.65
0.1 0.075 0.65
0 0.1 0.65
0.025 0.1 0.65
0.05 0.1 0.65
0.075 0.1 0.65
0.1 0.1 0.65
0 0 0.675
0.025 0 0.675
0.05 0 0.675
0.075 0 0.675
0.1 0 0.675
[...]
<PointData Vectors="Displacement">
<DataArray type="Float32" Name="Displacement" NumberOfComponents="3" format="ascii">
0 0 0
0 0 0
0 0 0
0 0 0
0 0 0
0 0 0
0 0 0
0 0 0
0 0 0
0 0 0
0 0 0
0 0 0
0 0 0
0 0 0
0 0 0
0 0 0
0 0 0
0 0 0
0 0 0
0 0 0
0 0 0
0 0 0
0 0 0
0 0 0
0 0 0
3.98271e-10 0.00124875 -7.00219e-11
4.07884e-10 0.00124875 -6.23808e-11
3.97198e-10 0.00124875 -5.72056e-11
4.18304e-10 0.00124875 -4.85801e-11
4.46992e-10 0.00124875 -7.69919e-11
4.06e-10 0.00124875 -7.92766e-11
4.04966e-10 0.00124875 -6.73903e-11
4.12794e-10 0.00124875 -7.21025e-11
4.19624e-10 0.00124875 -7.83502e-11
4.59192e-10 0.00124875 -6.76008e-11
3.9232e-10 0.00124875 -7.78259e-11
4.05382e-10 0.00124875 -7.27034e-11
4.1749e-10 0.00124875 -7.85309e-11
4.29962e-10 0.00124875 -6.47513e-11
4.3344e-10 0.00124875 -7.36423e-11
4.43948e-10 0.00124875 -6.55938e-11
4.14391e-10 0.00124875 -8.0126e-11
4.28532e-10 0.00124875 -5.76036e-11
4.15547e-10 0.00124875 -4.98717e-11
4.08474e-10 0.00124875 -5.01221e-11
4.29934e-10 0.00124875 -6.16481e-11
4.36573e-10 0.00124875 -3.54137e-11
4.13195e-10 0.00124875 -5.14441e-11
4.05566e-10 0.00124875 -3.76895e-11
4.07338e-10 0.00124875 -2.40886e-11
8.21839e-10 0.00249751 -1.89e-10
8.20658e-10 0.00249751 -1.37953e-10
8.4307e-10 0.00249751 -1.31109e-10
8.25382e-10 0.00249751 -1.27447e-10
8.38498e-10 0.00249751 -1.99216e-10
7.77881e-10 0.00249751 -1.48046e-10
8.24517e-10 0.00249751 -1.37566e-10
8.27569e-10 0.00249751 -1.31613e-10
8.49092e-10 0.00249751 -1.29884e-10
8.68877e-10 0.00249751 -1.26574e-10
8.00356e-10 0.00249751 -1.2939e-10
8.29311e-10 0.00249751 -1.5757e-10
8.48836e-10 0.00249751 -1.59089e-10
8.4026e-10 0.00249751 -1.2852e-10
8.81393e-10 0.00249751 -1.05063e-10
8.55155e-10 0.00249751 -1.47024e-10
8.43075e-10 0.00249751 -1.31596e-10
8.64676e-10 0.00249751 -1.4557e-10
8.1985e-10 0.00249751 -1.32009e-10
8.15587e-10 0.00249751 -1.39068e-10
9.63218e-10 0.00249751 -1.06688e-10
8.86055e-10 0.00249751 -1.81218e-10
8.22958e-10 0.00249751 -1.24418e-10
8.38348e-10 0.00249751 -1.08654e-10
7.91312e-10 0.00249751 -1.35301e-10
1.21751e-09 0.00374628 -2.10257e-10
1.24723e-09 0.00374628 -2.46044e-10
1.285e-09 0.00374627 -1.95698e-10
1.22505e-09 0.00374627 -1.35613e-10
1.34535e-09 0.00374628 -1.49046e-10
1.197e-09 0.00374628 -1.92073e-10
1.25936e-09 0.00374627 -1.73037e-10
1.28338e-09 0.00374627 -1.86901e-10
1.25922e-09 0.00374628 -1.57907e-10
1.33602e-09 0.00374627 -1.64327e-10
1.25438e-09 0.00374627 -1.99234e-10
1.26275e-09 0.00374627 -1.77581e-10
1.28469e-09 0.00374628 -1.44439e-10
1.30903e-09 0.00374627 -1.52852e-10
1.29243e-09 0.00374627 -1.79758e-10
1.32946e-09 0.00374627 -2.22604e-10
1.28799e-09 0.00374627 -2.16282e-10
1.28753e-09 0.00374627 -2.11455e-10
1.27732e-09 0.00374627 -1.85532e-10
1.26869e-09 0.00374627 -1.8352e-10
1.27812e-09 0.00374628 -2.44581e-10
1.30032e-09 0.00374627 -1.93357e-10
1.30816e-09 0.00374628 -2.51441e-10
1.24533e-09 0.00374627 -2.36649e-10
1.27908e-09 0.00374627 -2.10046e-10
1.64157e-09 0.00499505 -2.66941e-10
1.70715e-09 0.00499505 -2.62217e-10
1.7334e-09 0.00499505 -1.9421e-10
1.72843e-09 0.00499505 -2.17206e-10
1.83006e-09 0.00499505 -1.83612e-10
1.58569e-09 0.00499506 -2.81804e-10
1.71404e-09 0.00499505 -2.33835e-10
1.73736e-09 0.00499505 -2.65971e-10
1.70914e-09 0.00499505 -2.11011e-10
1.77078e-09 0.00499505 -2.07178e-10
1.68676e-09 0.00499505 -2.75342e-10
1.74189e-09 0.00499505 -2.64638e-10
1.76078e-09 0.00499506 -2.65637e-10
1.70401e-09 0.00499505 -2.07208e-10
1.81626e-09 0.00499505 -2.61961e-10
1.76896e-09 0.00499505 -3.12397e-10
1.71012e-09 0.00499505 -2.78495e-10
1.75719e-09 0.00499506 -3.06352e-10
1.74368e-09 0.00499505 -2.64499e-10
1.72316e-09 0.00499506 -2.7161e-10
1.81529e-09 0.00499505 -2.90187e-10
1.7768e-09 0.00499506 -3.39543e-10
1.7225e-09 0.00499505 -3.39103e-10
1.73424e-09 0.00499506 -3.02713e-10
1.68472e-09 0.00499505 -3.35133e-10
2.12972e-09 0.00624385 -3.50353e-10
2.19209e-09 0.00624385 -3.28996e-10
2.17798e-09 0.00624385 -3.50081e-10
2.2018e-09 0.00624385 -3.01177e-10
2.24269e-09 0.00624385 -3.6212e-10
2.18497e-09 0.00624385 -3.25431e-10
2.20503e-09 0.00624385 -2.54478e-10
2.2081e-09 0.00624385 -3.905e-10
2.19899e-09 0.00624385 -3.08256e-10
2.17488e-09 0.00624385 -3.17283e-10
2.14698e-09 0.00624385 -3.55083e-10
2.1983e-09 0.00624385 -3.75011e-10
2.2932e-09 0.00624385 -2.88406e-10
2.19146e-09 0.00624385 -2.7079e-10
2.15756e-09 0.00624385 -2.4341e-10
2.1694e-09 0.00624385 -4.0157e-10
2.24008e-09 0.00624385 -3.35225e-10
2.2543e-09 0.00624385 -2.8001e-10
2.19018e-09 0.00624385 -3.17939e-10
2.28873e-09 0.00624385 -3.29553e-10
2.25243e-09 0.00624385 -3.58833e-10
2.20718e-09 0.00624385 -3.86808e-10
2.28176e-09 0.00624385 -3.48281e-10
2.209e-09 0.00624385 -3.58102e-10
2.14558e-09 0.00624385 -2.30285e-10
2.73926e-09 0.00749268 -2.97859e-10
2.62347e-09 0.00749268 -3.64157e-10
2.71829e-09 0.00749268 -4.77497e-10
2.70324e-09 0.00749267 -4.87437e-10
2.86947e-09 0.00749268 -3.65091e-10
2.65514e-09 0.00749268 -3.2696e-10
2.65075e-09 0.00749268 -4.11176e-10
2.72325e-09 0.00749267 -3.84075e-10
2.72246e-09 0.00749268 -4.38785e-10
2.74158e-09 0.00749268 -4.34977e-10
2.6269e-09 0.00749268 -3.96581e-10
2.72664e-09 0.00749268 -4.01654e-10
2.73702e-09 0.00749267 -4.24748e-10
2.72404e-09 0.00749268 -3.99739e-10
2.61456e-09 0.00749268 -4.25624e-10
2.58983e-09 0.00749268 -4.38044e-10
2.72166e-09 0.00749267 -4.31003e-10
2.76572e-09 0.00749267 -3.26571e-10
2.7179e-09 0.00749268 -3.92205e-10
2.73472e-09 0.00749268 -3.79304e-10
2.60914e-09 0.00749267 -4.39451e-10
2.70806e-09 0.00749267 -3.95179e-10
2.74929e-09 0.00749268 -4.1284e-10
2.70013e-09 0.00749268 -2.64829e-10
2.82774e-09 0.00749268 -5.04845e-10
3.27667e-09 0.00874153 -4.87636e-10
3.13813e-09 0.00874153 -4.18941e-10
3.20657e-09 0.00874153 -3.35763e-10
3.30312e-09 0.00874153 -6.8086e-10
3.22431e-09 0.00874153 -4.10621e-10
3.19161e-09 0.00874153 -4.8409e-10
3.16859e-09 0.00874153 -4.61343e-10
3.18169e-09 0.00874153 -4.41003e-10
3.22811e-09 0.00874153 -5.02568e-10
3.19667e-09 0.00874153 -5.55743e-10
3.13681e-09 0.00874153 -4.04135e-10
3.21932e-09 0.00874153 -4.27781e-10
3.23887e-09 0.00874153 -5.02709e-10
3.25114e-09 0.00874153 -5.10903e-10
3.2509e-09 0.00874153 -4.57321e-10
3.08338e-09 0.00874153 -4.76233e-10
3.22171e-09 0.00874153 -4.45044e-10
3.23827e-09 0.00874153 -5.18375e-10
3.22968e-09 0.00874153 -4.93389e-10
3.28577e-09 0.00874153 -5.63111e-10
3.05982e-09 0.00874153 -4.65627e-10
3.25932e-09 0.00874153 -5.32879e-10
3.25951e-09 0.00874153 -3.96458e-10
3.2407e-09 0.00874153 -4.87837e-10
3.11466e-09 0.00874153 -5.21916e-10
3.96966e-09 0.00999041 -7.01812e-10
3.61411e-09 0.00999041 -5.07009e-10
3.67653e-09 0.00999041 -6.36668e-10
3.6515e-09 0.00999041 -4.23137e-10
3.89595e-09 0.00999041 -6.66943e-10
3.61951e-09 0.00999041 -5.09282e-10
3.74037e-09 0.00999041 -4.67255e-10
3.66207e-09 0.00999041 -5.52746e-10
3.6015e-09 0.00999041 -4.54129e-10
4.0272e-09 0.00999041 -5.57746e-10
3.7735e-09 0.00999041 -5.19703e-10
3.65369e-09 0.00999041 -5.04379e-10
3.78617e-09 0.00999041 -5.46286e-10
3.62485e-09 0.00999041 -6.15354e-10
3.81032e-09 0.00999041 -6.24081e-10
3.52398e-09 0.00999041 -4.26685e-10
3.69205e-09 0.00999041 -4.85139e-10
3.75864e-09 0.00999041 -5.34864e-10
3.66839e-09 0.00999041 -5.1384e-10
3.66374e-09 0.00999041 -6.29014e-10
3.80507e-09 0.00999041 -4.61873e-10
3.68725e-09 0.00999041 -5.28325e-10
3.68357e-09 0.00999041 -5.5795e-10
3.64991e-09 0.00999041 -4.80703e-10
3.9326e-09 0.00999041 -5.22167e-10
4.2273e-09 0.0112393 -6.63348e-10
4.38742e-09 0.0112393 -8.81527e-10
4.05909e-09 0.0112393 -5.7859e-10
4.19099e-09 0.0112393 -6.73028e-10
4.17689e-09 0.0112393 -6.76596e-10
4.31933e-09 0.0112393 -7.54063e-10
4.19174e-09 0.0112393 -6.98928e-10
4.153e-09 0.0112393 -6.94289e-10
4.14608e-09 0.0112393 -6.72824e-10
4.15277e-09 0.0112393 -6.46473e-10
4.21179e-09 0.0112393 -6.95492e-10
4.17188e-09 0.0112393 -6.63214e-10
4.21323e-09 0.0112393 -6.60528e-10
4.16543e-09 0.0112393 -6.65101e-10
4.25377e-09 0.0112393 -5.31235e-10
4.21396e-09 0.0112393 -6.36635e-10
4.18953e-09 0.0112393 -5.8622e-10
4.18262e-09 0.0112393 -5.83444e-10
4.25053e-09 0.0112393 -5.22407e-10
4.23286e-09 0.0112393 -5.89397e-10
4.14252e-09 0.0112393 -6.50869e-10
4.2044e-09 0.0112393 -5.65402e-10
4.29209e-09 0.0112393 -5.20226e-10
4.04597e-09 0.0112393 -5.93739e-10
4.04402e-09 0.0112393 -5.75664e-10
4.85777e-09 0.0124883 -8.03671e-10
4.65553e-09 0.0124883 -9.0986e-10
4.66441e-09 0.0124883 -1.07192e-09
4.63171e-09 0.0124883 -7.05882e-10
4.91554e-09 0.0124883 -6.52403e-10
4.63426e-09 0.0124883 -8.36971e-10
4.72235e-09 0.0124883 -8.5255e-10
4.69142e-09 0.0124883 -7.77852e-10
4.57384e-09 0.0124883 -7.53194e-10
4.8064e-09 0.0124883 -7.11175e-10
4.54239e-09 0.0124883 -8.28407e-10
4.6582e-09 0.0124883 -6.61291e-10
4.60864e-09 0.0124883 -7.07213e-10
4.66517e-09 0.0124883 -5.93188e-10
4.81211e-09 0.0124883 -7.26882e-10
4.68592e-09 0.0124883 -7.3779e-10
4.61796e-09 0.0124883 -7.77402e-10
4.66922e-09 0.0124883 -5.9193e-10
4.58588e-09 0.0124883 -7.75436e-10
4.64788e-09 0.0124883 -6.68855e-10
4.54666e-09 0.0124883 -7.03792e-10
4.69268e-09 0.0124883 -6.75967e-10
4.7146e-09 0.0124883 -6.49573e-10
4.49123e-09 0.0124883 -6.56081e-10
4.60882e-09 0.0124883 -7.37645e-10
5.12254e-09 0.0137373 -7.50791e-10
5.12007e-09 0.0137373 -9.01873e-10
5.26821e-09 0.0137373 -8.52156e-10
5.15097e-09 0.0137373 -8.51782e-10
5.16588e-09 0.0137373 -5.08185e-10
5.01565e-09 0.0137373 -8.21171e-10
5.12745e-09 0.0137373 -8.36597e-10
5.13989e-09 0.0137373 -9.14767e-10
5.08284e-09 0.0137373 -7.40484e-10
5.00626e-09 0.0137373 -7.11558e-10
5.02763e-09 0.0137373 -7.98742e-10
5.14807e-09 0.0137373 -8.24007e-10
4.98234e-09 0.0137373 -7.84391e-10
4.95127e-09 0.0137373 -9.05638e-10
5.19209e-09 0.0137373 -6.77957e-10
5.12968e-09 0.0137373 -7.77833e-10
5.00471e-09 0.0137373 -7.84961e-10
4.96075e-09 0.0137373 -7.77115e-10
5.00444e-09 0.0137373 -6.96559e-10
5.143e-09 0.0137373 -7.72447e-10
4.82073e-09 0.0137373 -8.8056e-10
5.12403e-09 0.0137373 -7.85765e-10
4.98753e-09 0.0137373 -8.6967e-10
5.2055e-09 0.0137373 -7.33662e-10
4.8172e-09 0.0137373 -7.27964e-10
5.53021e-09 0.0149864 -8.14021e-10
5.43742e-09 0.0149864 -5.25406e-10
5.52016e-09 0.0149864 -5.77054e-10
5.39505e-09 0.0149864 -1.09318e-09
5.60453e-09 0.0149864 -9.82593e-10
5.37794e-09 0.0149864 -7.26593e-10
5.49595e-09 0.0149864 -7.54735e-10
5.45119e-09 0.0149864 -7.59466e-10
5.36821e-09 0.0149864 -8.77252e-10
5.41386e-09 0.0149864 -9.4379e-10
5.47421e-09 0.0149864 -8.09378e-10
5.45931e-09 0.0149864 -9.34633e-10
5.439e-09 0.0149864 -9.24331e-10
5.36662e-09 0.0149864 -8.22503e-10
5.38923e-09 0.0149864 -8.50382e-10
5.75476e-09 0.0149864 -9.44177e-10
5.36047e-09 0.0149864 -8.51938e-10
5.44493e-09 0.0149864 -7.9256e-10
5.34145e-09 0.0149864 -7.92513e-10
5.38955e-09 0.0149864 -7.62371e-10
5.93147e-09 0.0149864 -9.8725e-10
5.36098e-09 0.0149864 -8.79504e-10
5.55601e-09 0.0149864 -8.33968e-10
5.29239e-09 0.0149864 -7.95809e-10
5.15993e-09 0.0149864 -7.97922e-10
5.79294e-09 0.0162356 -5.76299e-10
5.98231e-09 0.0162356 -6.72872e-10
5.66799e-09 0.0162356 -7.43929e-10
5.63699e-09 0.0162356 -1.18862e-09
5.98799e-09 0.0162356 -9.30472e-10
5.94317e-09 0.0162356 -7.19284e-10
5.74167e-09 0.0162356 -7.702e-10
5.74586e-09 0.0162356 -9.55266e-10
5.74333e-09 0.0162356 -9.33458e-10
5.76601e-09 0.0162356 -9.95558e-10
5.72163e-09 0.0162356 -9.45264e-10
5.74217e-09 0.0162356 -8.8149e-10
5.93496e-09 0.0162356 -8.30626e-10
5.76891e-09 0.0162356 -8.80699e-10
5.48353e-09 0.0162356 -9.48638e-10
5.8229e-09 0.0162356 -8.40166e-10
5.88634e-09 0.0162356 -9.56476e-10
5.88726e-09 0.0162356 -8.84214e-10
5.72456e-09 0.0162356 -9.25807e-10
5.54919e-09 0.0162356 -9.14643e-10
5.76494e-09 0.0162356 -8.50615e-10
5.9249e-09 0.0162356 -8.39916e-10
5.6651e-09 0.0162356 -5.69563e-10
5.73965e-09 0.0162356 -6.60452e-10
5.85512e-09 0.0162356 -8.27299e-10
6.69949e-09 0.0174848 -6.6896e-10
6.13816e-09 0.0174848 -8.39489e-10
5.93717e-09 0.0174848 -1.11176e-09
5.97578e-09 0.0174848 -1.27455e-09
5.75227e-09 0.0174848 -9.38859e-10
6.41126e-09 0.0174848 -7.88644e-10
6.19126e-09 0.0174848 -8.15384e-10
5.99331e-09 0.0174848 -9.64314e-10
5.93977e-09 0.0174848 -9.41886e-10
5.85072e-09 0.0174848 -9.84492e-10
6.14213e-09 0.0174848 -9.32441e-10
6.17713e-09 0.0174848 -7.58958e-10
6.21392e-09 0.0174848 -7.66471e-10
6.01354e-09 0.0174848 -1.08387e-09
5.91511e-09 0.0174848 -1.01447e-09
5.9425e-09 0.0174848 -6.86402e-10
6.18631e-09 0.0174848 -8.03417e-10
6.28969e-09 0.0174848 -7.65647e-10
5.96282e-09 0.0174848 -8.99543e-10
5.9767e-09 0.0174848 -9.01375e-10
6.22532e-09 0.0174848 -5.09263e-10
6.25187e-09 0.0174848 -8.30115e-10
6.15351e-09 0.0174848 -1.0177e-09
5.9993e-09 0.0174848 -8.6099e-10
6.00759e-09 0.0174848 -6.5207e-10
6.49144e-09 0.0187341 -9.47447e-10
6.43394e-09 0.0187341 -8.86794e-10
6.17156e-09 0.0187341 -1.05095e-09
6.29393e-09 0.0187341 -1.00296e-09
6.45323e-09 0.0187341 -1.17092e-09
6.45637e-09 0.0187341 -1.00334e-09
6.40864e-09 0.0187341 -9.80742e-10
6.29887e-09 0.0187341 -9.38867e-10
6.22318e-09 0.0187341 -1.12641e-09
6.31058e-09 0.0187341 -1.10319e-09
6.47369e-09 0.0187341 -7.72469e-10
6.47214e-09 0.0187341 -9.38717e-10
6.34093e-09 0.0187341 -8.33721e-10
6.15576e-09 0.0187341 -9.90461e-10
6.35861e-09 0.0187341 -1.14923e-09
6.59915e-09 0.0187341 -9.29018e-10
6.31051e-09 0.0187341 -7.93926e-10
6.35506e-09 0.0187341 -9.34846e-10
6.29954e-09 0.0187341 -9.62132e-10
6.14223e-09 0.0187341 -9.19596e-10
6.70394e-09 0.0187341 -7.68684e-10
6.27865e-09 0.0187341 -9.69064e-10
6.56117e-09 0.0187341 -1.04009e-09
6.09968e-09 0.0187341 -7.74075e-10
6.38951e-09 0.0187341 -7.53193e-10
6.19528e-09 0.0199835 -6.10265e-10
6.56964e-09 0.0199835 -8.56875e-10
6.47091e-09 0.0199835 -5.76284e-10
6.22487e-09 0.0199835 -1.11013e-09
6.86845e-09 0.0199835 -1.00046e-09
6.40461e-09 0.0199835 -8.41907e-10
6.5471e-09 0.0199835 -9.35385e-10
6.524e-09 0.0199835 -8.25404e-10
6.30638e-09 0.0199835 -1.00821e-09
6.3892e-09 0.0199835 -9.67657e-10
6.46627e-09 0.0199835 -8.61516e-10
6.4707e-09 0.0199835 -8.25798e-10
6.47218e-09 0.0199835 -8.79284e-10
6.21584e-09 0.0199835 -8.32522e-10
6.22704e-09 0.0199835 -8.70791e-10
6.83982e-09 0.0199835 -1.02062e-09
6.43133e-09 0.0199835 -1.13552e-09
6.40053e-09 0.0199835 -6.76383e-10
6.21922e-09 0.0199835 -7.74832e-10
6.50369e-09 0.0199835 -8.82557e-10
6.52082e-09 0.0199835 -1.16892e-09
6.69743e-09 0.0199835 -1.06303e-09
6.25589e-09 0.0199835 -1.26506e-09
6.50527e-09 0.0199835 -5.72894e-10
6.10132e-09 0.0199835 -7.96236e-10
6.65726e-09 0.0212329 -5.27951e-10
6.28862e-09 0.0212329 -5.38452e-10
6.48238e-09 0.0212329 -6.68681e-10
6.35513e-09 0.0212329 -5.70528e-10
6.22289e-09 0.0212329 -4.82377e-10
6.67047e-09 0.0212329 -5.34381e-10
6.31364e-09 0.0212329 -6.39929e-10
6.40234e-09 0.0212329 -6.1614e-10
6.27427e-09 0.0212329 -6.11873e-10
6.55888e-09 0.0212329 -7.69421e-10
6.85385e-09 0.0212329 -8.89844e-10
6.54393e-09 0.0212329 -1.07456e-09
6.42002e-09 0.0212329 -7.98786e-10
6.27928e-09 0.0212329 -7.76812e-10
5.9876e-09 0.0212329 -4.99179e-10
7.04164e-09 0.0212329 -1.25081e-09
6.47384e-09 0.0212329 -1.16288e-09
6.44496e-09 0.0212329 -1.035e-09
6.25932e-09 0.0212329 -7.98141e-10
5.81869e-09 0.0212329 -6.38509e-10
7.42885e-09 0.0212329 -1.29616e-09
6.37053e-09 0.0212329 -1.32207e-09
6.51605e-09 0.0212329 -9.40689e-10
6.3094e-09 0.0212329 -9.16545e-10
5.60761e-09 0.0212329 -6.43481e-10
6.36259e-09 0.0224825 -3.87552e-10
6.06918e-09 0.0224825 -4.02549e-10
6.34216e-09 0.0224825 -3.9252e-10
6.23545e-09 0.0224825 -8.65496e-10
6.80432e-09 0.0224825 -6.2681e-10
6.66759e-09 0.0224825 -7.64114e-10
6.03138e-09 0.0224825 -7.69411e-10
6.32975e-09 0.0224825 -4.88581e-10
6.12043e-09 0.0224825 -6.11669e-10
6.47278e-09 0.0224825 -6.91275e-10
6.27302e-09 0.0224825 -8.82277e-10
6.30293e-09 0.0224825 -1.002e-09
6.29042e-09 0.0224825 -1.07813e-09
6.29203e-09 0.0224825 -7.23508e-10
6.19293e-09 0.0224825 -7.48679e-10
6.45332e-09 0.0224825 -1.18225e-09
6.22622e-09 0.0224825 -1.25793e-09
6.33774e-09 0.0224825 -1.04857e-09
6.28633e-09 0.0224825 -1.12916e-09
6.03968e-09 0.0224825 -7.31759e-10
6.417e-09 0.0224825 -1.08985e-09
6.46871e-09 0.0224825 -1.20765e-09
6.32422e-09 0.0224825 -1.21705e-09
6.14666e-09 0.0224825 -8.90481e-10
6.20286e-09 0.0224825 -1.07622e-09
5.92812e-09 0.0237322 -7.09529e-10
5.83461e-09 0.0237322 -4.62228e-10
5.73393e-09 0.0237322 -8.46216e-10
5.93936e-09 0.0237322 -1.03725e-09
6.49215e-09 0.0237322 -1.09252e-09
5.88354e-09 0.0237322 -5.75637e-10
5.99326e-09 0.0237322 -7.60572e-10
6.05159e-09 0.0237322 -6.05018e-10
5.96433e-09 0.0237322 -7.34745e-10
6.32927e-09 0.0237322 -9.87435e-10
6.14966e-09 0.0237322 -9.31253e-10
6.03343e-09 0.0237322 -8.36247e-10
6.10013e-09 0.0237322 -7.13348e-10
5.91632e-09 0.0237322 -9.11102e-10
6.35534e-09 0.0237322 -9.6008e-10
6.26397e-09 0.0237322 -8.28506e-10
6.06216e-09 0.0237322 -9.10894e-10
5.94506e-09 0.0237322 -8.40186e-10
6.08328e-09 0.0237322 -8.15309e-10
6.59935e-09 0.0237322 -9.37365e-10
5.96537e-09 0.0237322 -7.88871e-10
6.02781e-09 0.0237322 -1.21439e-09
6.0714e-09 0.0237322 -7.83184e-10
6.1838e-09 0.0237322 -1.02252e-09
6.29624e-09 0.0237322 -8.0398e-10
5.93378e-09 0.024982 -5.07649e-10
5.70538e-09 0.024982 -3.77083e-10
5.79556e-09 0.024982 -3.32086e-10
5.31263e-09 0.024982 -6.22384e-10
5.90908e-09 0.024982 -8.68251e-10
5.72661e-09 0.024982 -5.06607e-10
5.92297e-09 0.024982 -6.05963e-10
5.67071e-09 0.024982 -5.45997e-10
5.54124e-09 0.024982 -7.7016e-10
5.67834e-09 0.024982 -7.41182e-10
6.05328e-09 0.024982 -7.37099e-10
5.70642e-09 0.024982 -6.40109e-10
5.85508e-09 0.024982 -4.65099e-10
5.67685e-09 0.024982 -8.54145e-10
5.83058e-09 0.024982 -6.39742e-10
5.72707e-09 0.024982 -5.85625e-10
5.85438e-09 0.024982 -7.42924e-10
5.67644e-09 0.024982 -5.28857e-10
5.88535e-09 0.024982 -4.8462e-10
5.96325e-09 0.024982 -6.43937e-10
5.90409e-09 0.024982 -7.64706e-10
5.85319e-09 0.024982 -6.76401e-10
5.56739e-09 0.024982 -5.11953e-10
5.71066e-09 0.024982 -5.27923e-10
6.2679e-09 0.024982 -7.95697e-10
5.80902e-09 0.0262319 -2.48167e-10
5.51882e-09 0.0262319 -4.60539e-10
5.92605e-09 0.0262319 -3.31614e-10
5.10259e-09 0.0262319 -6.83575e-10
5.17036e-09 0.0262319 -3.5724e-10
5.46143e-09 0.0262319 -3.77246e-10
5.6311e-09 0.0262319 -3.67096e-10
5.64933e-09 0.0262319 -6.31345e-10
5.16841e-09 0.0262319 -5.4596e-10
5.50684e-09 0.0262319 -3.99933e-10
5.61142e-09 0.0262319 -3.24975e-10
5.60299e-09 0.0262319 -2.00371e-10
5.52655e-09 0.0262319 -4.01323e-10
5.39591e-09 0.0262319 -2.80932e-10
5.60927e-09 0.0262319 -6.2579e-10
5.49902e-09 0.0262319 -1.51082e-10
5.50865e-09 0.0262319 -1.66872e-10
5.49303e-09 0.0262319 -1.80369e-10
5.37369e-09 0.0262319 -4.32086e-10
6.00139e-09 0.0262319 -1.41036e-10
5.39021e-09 0.0262319 -3.22063e-10
5.46883e-09 0.0262319 -1.00169e-10
5.47529e-09 0.0262319 -2.02338e-10
5.52302e-09 0.0262319 1.86776e-10
5.49366e-09 0.0262319 -1.65171e-10
4.5593e-09 0.0274819 3.07707e-11
5.64038e-09 0.0274819 -7.68741e-11
5.05841e-09 0.0274819 -7.19696e-10
5.06927e-09 0.0274819 -6.66217e-10
4.68171e-09 0.0274819 -1.2153e-10
5.07664e-09 0.0274819 4.22995e-11
5.39989e-09 0.0274819 -1.01746e-10
5.29374e-09 0.0274819 -4.82231e-10
5.13208e-09 0.0274819 -3.16308e-10
5.11565e-09 0.0274819 1.37812e-10
5.22979e-09 0.0274819 -1.24457e-11
5.32146e-09 0.0274819 -1.29425e-10
5.20361e-09 0.0274819 -4.47953e-12
5.00052e-09 0.0274819 -1.70495e-11
5.38969e-09 0.0274819 -6.86402e-11
5.21801e-09 0.0274819 -1.46085e-10
5.30991e-09 0.0274819 8.42788e-11
5.1355e-09 0.0274819 2.30394e-10
4.89075e-09 0.0274819 2.35751e-10
5.46351e-09 0.0274819 1.8656e-10
5.55852e-09 0.0274819 3.67296e-10
5.16737e-09 0.0274819 -5.18638e-11
5.28049e-09 0.0274819 5.78613e-11
5.18903e-09 0.0274819 4.82768e-10
4.84528e-09 0.0274819 9.63913e-11
5.37284e-09 0.028732 7.09578e-10
4.85115e-09 0.028732 5.44222e-11
4.86587e-09 0.028732 -7.36451e-11
4.81752e-09 0.028732 -2.6777e-11
4.65972e-09 0.028732 7.34062e-11
5.26155e-09 0.028732 1.43187e-10
4.84274e-09 0.028732 3.24443e-11
4.97214e-09 0.028732 4.3285e-10
4.70403e-09 0.028732 8.38731e-11
5.23973e-09 0.028732 2.18262e-10
5.07221e-09 0.028732 2.87589e-10
5.09804e-09 0.028732 3.33509e-10
4.89997e-09 0.028732 2.0156e-10