<?xml version="1.0"?>
<VTKFile type="UnstructuredGrid" version="0.1" byte_order="LittleEndian">
<UnstructuredGrid>
<Piece NumberOfPoints="1025" NumberOfCells="640">
<Points>
<DataArray type="Float32" NumberOfComponents="3" format="ascii">
0 0 0
0.025 0 0
0.05 0 0
0.075 0 0
0.1 0 0
0 0.025 0
0.025 0.025 0
0.05 0.025 0
0.075 0.025 0
0.1 0.025 0
0 0.05 0
0.025 0.05 0
0.05 0.05 0
0.075 0.05 0
0.1 0.05 0
0 0.075 0
0.025 0.075 0
0.05 0.075 0
0.075 0.075 0
0.1 0.075 0
0 0.1 0
0.025 0.1 0
0.05 0.1 0
0.075 0.1 0
0.1 0.1 0
0 0 0.025
0.025 0 0.025
0.05 0 0.025
0.075 0 0.025
0.1 0 0.025
0 0.025 0.025
0.025 0.025 0.025
0.05 0.025 0.025
0.075 0.025 0.025
0.1 0.025 0.025
0 0.05 0.025
0.025 0.05 0.025
0.05 0.05 0.025
0.075 0.05 0.025
0.1 0.05 0.025
0 0.075 0.025
0.025 0.075 0.025
0.05 0.075 0.025
0.075 0.075 0.025
0.1 0.075 0.025
0 0.1 0.025
0.025 0.1 0.025
0.05 0.1 0.025
0.075 0.1 0.025
0.1 0.1 0.025
0 0 0.05
0.025 0 0.05
0.05 0 0.05
0.075 0 0.05
0.1 0 0.05
0 0.025 0.05
0.025 0.025 0.05
0.05 0.025 0.05
0.075 0.025 0.05
0.1 0.025 0.05
0 0.05 0.05
0.025 0.05 0.05
0.05 0.05 0.05
0.075 0.05 0.05
0.1 0.05 0.05
0 0.075 0.05
0.025 0.075 0.05
0.05 0.075 0.05
0.075 0.075 0.05
0.1 0.075 0.05
0 0.1 0.05
0.025 0.1 0.05
0.05 0.1 0.05
0.075 0.1 0.05
0.1 0.1 0.05
0 0 0.075
0.025 0 0.075
0.05 0 0.075
0.075 0 0.075
0.1 0 0.075
0 0.025 0.075
0.025 0.025 0.075
0.05 0.025 0.075
0.075 0.025 0.075
0.1 0.025 0.075
0 0.05 0.075
0.025 0.05 0.075
0.05 0.05 0.075
0.075 0.05 0.075
0.1 0.05 0.075
0 0.075 0.075
0.025 0.075 0.075
0.05 0.075 0.075
0.075 0.075 0.075
0.1 0.075 0.075
0 0.1 0.075
0.025 0.1 0.075
0.05 0.1 0.075
0.075 0.1 0.075
0.1 0.1 0.075
0 0 0.1
0.025 0 0.1
0.05 0 0.1
0.075 0 0.1
0.1 0 0.1
0 0.025 0.1
0.025 0.025 0.1
0.05 0.025 0.1
0.075 0.025 0.1
0.1 0.025 0.1
0 0.05 0.1
0.025 0.05 0.1
0.05 0.05 0.1
0.075 0.05 0.1
0.1 0.05 0.1
0 0.075 0.1
0.025 0.075 0.1
0.05 0.075 0.1
0.075 0.075 0.1
0.1 0.075 0.1
0 0.1 0.1
0.025 0.1 0.1
0.05 0.1 0.1
0.075 0.1 0.1
0.1 0.1 0.1
0 0 0.125
0.025 0 0.125
0.05 0 0.125
0.075 0 0.125
0.1 0 0.125
0 0.025 0.125
0.025 0.025 0.125
0.05 0.025 0.125
0.075 0.025 0.125
0.1 0.025 0.125
0 0.05 0.125
0.025 0.05 0.125
0.05 0.05 0.125
0.075 0.05 0.125
0.1 0.05 0.125
0 0.075 0.125
0.025 0.075 0.125
0.05 0.075 0.125
0.075 0.075 0.125
0.1 0.075 0.125
0 0.1 0.125
0.025 0.1 0.125
0.05 0.1 0.125
0.075 0.1 0.125
0.1 0.1 0.125
0 0 0.15
0.025 0 0.15
0.05 0 0.15
0.075 0 0.15
0.1 0 0.15
0 0.025 0.15
0.025 0.025 0.15
0.05 0.025 0.15
0.075 0.025 0.15
0.1 0.025 0.15
0 0.05 0.15
0.025 0.05 0.15
0.05 0.05 0.15
0.075 0.05 0.15
0.1 0.05 0.15
0 0.075 0.15
0.025 0.075 0.15
0.05 0.075 0.15
0.075 0.075 0.15
0.1 0.075 0.15
0 0.1 0.15
0.025 0.1 0.15
0.05 0.1 0.15
0.075 0.1 0.15
0.1 0.1 0.15
0 0 0.175
0.025 0 0.175
0.05 0 0.175
0.075 0 0.175
0.1 0 0.175
0 0.025 0.175
0.025 0.025 0.175
0.05 0.025 0.175
0.075 0.025 0.175
0.1 0.025 0.175
0 0.05 0.175
0.025 0.05 0.175
0.05 0.05 0.175
0.075 0.05 0.175
0.1 0.05 0.175
0 0.075 0.175
0.025 0.075 0.175
0.05 0.075 0.175
0.075 0.075 0.175
0.1 0.075 0.175
0 0.1 0.175
0.025 0.1 0.175
0.05 0.1 0.175
0.075 0.1 0.175
0.1 0.1 0.175
0 0 0.2
0.025 0 0.2
0.05 0 0.2
0.075 0 0.2
0.1 0 0.2
0 0.025 0.2
0.025 0.025 0.2
0.05 0.025 0.2
0.075 0.025 0.2
0.1 0.025 0.2
0 0.05 0.2
0.025 0.05 0.2
0.05 0.05 0.2
0.075 0.05 0.2
0.1 0.05 0.2
0 0.075 0.2
0.025 0.075 0.2
0.05 0.075 0.2
0.075 0.075 0.2
0.1 0.075 0.2
0 0.1 0.2
0.025 0.1 0.2
0.05 0.1 0.2
0.075 0.1 0.2
0.1 0.1 0.2
0 0 0.225
0.025 0 0.225
0.05 0 0.225
0.075 0 0.225
0.1 0 0.225
0 0.025 0.225
0.025 0.025 0.225
0.05 0.025 0.225
0.075 0.025 0.225
0.1 0.025 0.225
0 0.05 0.225
0.025 0.05 0.225
0.05 0.05 0.225
0.075 0.05 0.225
0.1 0.05 0.225
0 0.075 0.225
0.025 0.075 0.225
0.05 0.075 0.225
0.075 0.075 0.225
0.1 0.075 0.225
0 0.1 0.225
0.025 0.1 0.225
0.05 0.1 0.225
0.075 0.1 0.225
0.1 0.1 0.225
0 0 0.25
0.025 0 0.25
0.05 0 0.25
0.075 0 0.25
0.1 0 0.25
0 0.025 0.25
0.025 0.025 0.25
0.05 0.025 0.25
0.075 0.025 0.25
0.1 0.025 0.25
0 0.05 0.25
0.025 0.05 0.25
0.05 0.05 0.25
0.075 0.05 0.25
0.1 0.05 0.25
0 0.075 0.25
0.025 0.075 0.25
0.05 0.075 0.25
0.075 0.075 0.25
0.1 0.075 0.25
0 0.1 0.25
0.025 0.1 0.25
0.05 0.1 0.25
0.075 0.1 0.25
0.1 0.1 0.25
0 0 0.275
0.025 0 0.275
0.05 0 0.275
0.075 0 0.275
0.1 0 0.275
0 0.025 0.275
0.025 0.025 0.275
0.05 0.025 0.275
0.075 0.025 0.275
0.1 0.025 0.275
0 0.05 0.275
0.025 0.05 0.275
0.05 0.05 0.275
0.075 0.05 0.275
0.1 0.05 0.275
0 0.075 0.275
0.025 0.075 0.275
0.05 0.075 0.275
0.075 0.075 0.275
0.1 0.075 0.275
0 0.1 0.275
0.025 0.1 0.275
0.05 0.1 0.275
0.075 0.1 0.275
0.1 0.1 0.275
0 0 0.3
0.025 0 0.3
0.05 0 0.3
0.075 0 0.3
0.1 0 0.3
0 0.025 0.3
0.025 0.025 0.3
0.05 0.025 0.3
0.075 0.025 0.3
0.1 0.025 0.3
0 0.05 0.3
0.025 0.05 0.3
0.05 0.05 0.3
0.075 0.05 0.3
0.1 0.05 0.3
0 0.075 0.3
0.025 0.075 0.3
0.05 0.075 0.3
0.075 0.075 0.3
0.1 0.075 0.3
0 0.1 0.3
0.025 0.1 0.3
0.05 0.1 0.3
0.075 0.1 0.3
0.1 0.1 0.3
0 0 0.325
0.025 0 0.325
0.05 0 0.325
0.075 0 0.325
0.1 0 0.325
0 0.025 0.325
0.025 0.025 0.325
0.05 0.025 0.325
0.075 0.025 0.325
0.1 0.025 0.325
0 0.05 0.325
0.025 0.05 0.325
0.05 0.05 0.325
0.075 0.05 0.325
0.1 0.05 0.325
0 0.075 0.325
0.025 0.075 0.325
0.05 0.075 0.325
0.075 0.075 0.325
0.1 0.075 0.325
0 0.1 0.325
0.025 0.1 0.325
0.05 0.1 0.325
0.075 0.1 0.325
0.1 0.1 0.325
0 0 0.35
0.025 0 0.35
0.05 0 0.35
0.075 0 0.35
0.1 0 0.35
0 0.025 0.35
0.025 0.025 0.35
0.05 0.025 0.35
0.075 0.025 0.35
0.1 0.025 0.35
0 0.05 0.35
0.025 0.05 0.35
0.05 0.05 0.35
0.075 0.05 0.35
0.1 0.05 0.35
0 0.075 0.35
0.025 0.075 0.35
0.05 0.075 0.35
0.075 0.075 0.35
0.1 0.075 0.35
0 0.1 0.35
0.025 0.1 0.35
0.05 0.1 0.35
0.075 0.1 0.35
0.1 0.1 0.35
0 0 0.375
0.025 0 0.375
0.05 0 0.375
0.075 0 0.375
0.1 0 0.375
0 0.025 0.375
0.025 0.025 0.375
0.05 0.025 0.375
0.075 0.025 0.375
0.1 0.025 0.375
0 0.05 0.375
0.025 0.05 0.375
0.05 0.05 0.375
0.075 0.05 0.375
0.1 0.05 0.375
0 0.075 0.375
0.025 0.075 0.375
0.05 0.075 0.375
0.075 0.075 0.375
0.1 0.075 0.375
0 0.1 0.375
0.025 0.1 0.375
0.05 0.1 0.375
0.075 0.1 0.375
0.1 0.1 0.375
0 0 0.4
0.025 0 0.4
0.05 0 0.4
0.075 0 0.4
0.1 0 0.4
0 0.025 0.4
0.025 0.025 0.4
0.05 0.025 0.4
0.075 0.025 0.4
0.1 0.025 0.4
0 0.05 0.4
0.025 0.05 0.4
0.05 0.05 0.4
0.075 0.05 0.4
0.1 0.05 0.4
0 0.075 0.4
0.025 0.075 0.4
0.05 0.075 0.4
0.075 0.075 0.4
0.1 0.075 0.4
0 0.1 0.4
0.025 0.1 0.4
0.05 0.1 0.4
0.075 0.1 0.4
0.1 0.1 0.4
0 0 0.425
0.025 0 0.425
0.05 0 0.425
0.075 0 0.425
0.1 0 0.425
0 0.025 0.425
0.025 0.025 0.425
0.05 0.025 0.425
0.075 0.025 0.425
0.1 0.025 0.425
0 0.05 0.425
0.025 0.05 0.425
0.05 0.05 0.425
0.075 0.05 0.425
0.1 0.05 0.425
0 0.075 0.425
0.025 0.075 0.425
0.05 0.075 0.425
0.075 0.075 0.425
0.1 0.075 0.425
0 0.1 0.425
0.025 0.1 0.425
0.05 0.1 0.425
0.075 0.1 0.425
0.1 0.1 0.425
0 0 0.45
0.025 0 0.45
0.05 0 0.45
0.075 0 0.45
0.1 0 0.45
0 0.025 0.45
0.025 0.025 0.45
0.05 0.025 0.45
0.075 0.025 0.45
0.1 0.025 0.45
0 0.05 0.45
0.025 0.05 0.45
0.05 0.05 0.45
0.075 0.05 0.45
0.1 0.05 0.45
0 0.075 0.45
0.025 0.075 0.45
0.05 0.075 0.45
0.075 0.075 0.45
0.1 0.075 0.45
0 0.1 0.45
0.025 0.1 0.45
0.05 0.1 0.45
0.075 0.1 0.45
0.1 0.1 0.45
0 0 0.475
0.025 0 0.475
0.05 0 0.475
0.075 0 0.475
0.1 0 0.475
0 0.025 0.475
0.025 0.025 0.475
0.05 0.025 0.475
0.075 0.025 0.475
0.1 0.025 0.475
0 0.05 0.475
0.025 0.05 0.475
0.05 0.05 0.475
0.075 0.05 0.475
0.1 0.05 0.475
0 0.075 0.475
0.025 0.075 0.475
0.05 0.075 0.475
0.075 0.075 0.475
0.1 0.075 0.475
0 0.1 0.475
0.025 0.1 0.475
0.05 0.1 0.475
0.075 0.1 0.475
0.1 0.1 0.475
0 0 0.5
0.025 0 0.5
0.05 0 0.5
0.075 0 0.5
0.1 0 0.5
0 0.025 0.5
0.025 0.025 0.5
0.05 0.025 0.5
0.075 0.025 0.5
0.1 0.025 0.5
0 0.05 0.5
0.025 0.05 0.5
0.05 0.05 0.5
0.075 0.05 0.5
0.1 0.05 0.5
0 0.075 0.5
0.025 0.075 0.5
0.05 0.075 0.5
0.075 0.075 0.5
0.1 0.075 0.5
0 0.1 0.5
0.025 0.1 0.5
0.05 0.1 0.5
0.075 0.1 0.5
0.1 0.1 0.5
0 0 0.525
0.025 0 0.525
0.05 0 0.525
0.075 0 0.525
0.1 0 0.525
0 0.025 0.525
0.025 0.025 0.525
0.05 0.025 0.525
0.075 0.025 0.525
0.1 0.025 0.525
0 0.05 0.525
0.025 0.05 0.525
0.05 0.05 0.525
0.075 0.05 0.525
0.1 0.05 0.525
0 0.075 0.525
0.025 0.075 0.525
0.05 0.075 0.525
0.075 0.075 0.525
0.1 0.075 0.525
0 0.1 0.525
0.025 0.1 0.525
0.05 0.1 0.525
0.075 0.1 0.525
0.1 0.1 0.525
0 0 0.55
0.025 0 0.55
0.05 0 0.55
0.075 0 0.55
0.1 0 0.55
0 0.025 0.55
0.025 0.025 0.55
0.05 0.025 0.55
0.075 0.025 0.55
0.1 0.025 0.55
0 0.05 0.55
0.025 0.05 0.55
0.05 0.05 0.55
0.075 0.05 0.55
0.1 0.05 0.55
0 0.075 0.55
0.025 0.075 0.55
0.05 0.075 0.55
0.075 0.075 0.55
0.1 0.075 0.55
0 0.1 0.55
0.025 0.1 0.55
0.05 0.1 0.55
0.075 0.1 0.55
0.1 0.1 0.55
0 0 0.575
0.025 0 0.575
0.05 0 0.575
0.075 0 0.575
0.1 0 0.575
0 0.025 0.575
0.025 0.025 0.575
0.05 0.025 0.575
0.075 0.025 0.575
0.1 0.025 0.575
0 0.05 0.575
0.025 0.05 0.575
0.05 0.05 0.575
0.075 0.05 0.575
0.1 0.05 0.575
0 0.075 0.575
0.025 0.075 0.575
0.05 0.075 0.575
0.075 0.075 0.575
0.1 0.075 0.575
0 0.1 0.575
0.025 0.1 0.575
0.05 0.1 0.575
0.075 0.1 0.575
0.1 0.1 0.575
0 0 0.6
0.025 0 0.6
0.05 0 0.6
0.075 0 0.6
0.1 0 0.6
0 0.025 0.6
0.025 0.025 0.6
0.05 0.025 0.6
0.075 0.025 0.6
0.1 0.025 0.6
0 0.05 0.6
0.025 0.05 0.6
0.05 0.05 0.6
0.075 0.05 0.6
0.1 0.05 0.6
0 0.075 0.6
0.025 0.075 0.6
0.05 0.075 0.6
0.075 0.075 0.6
0.1 0.075 0.6
0 0.1 0.6
0.025 0.1 0.6
0.05 0.1 0.6
0.075 0.1 0.6
0.1 0.1 0.6
0 0 0.625
0.025 0 0.625
0.05 0 0.625
0.075 0 0.625
0.1 0 0.625
0 0.025 0.625
0.025 0.025 0.625
0.05 0.025 0.625
0.075 0.025 0.625
0.1 0.025 0.625
0 0.05 0.625
0.025 0.05 0.625
0.05 0.05 0.625
0.075 0.05 0.625
0.1 0.05 0.625
0 0.075 0.625
0.025 0.075 0.625
0.05 0.075 0.625
0.075 0.075 0.625
0.1 0.075 0.625
0 0.1 0.625
0.025 0.1 0.625
0.05 0.1 0.625
0.075 0.1 0.625
0.1 0.1 0.625
0 0 0.65
0.025 0 0.65
0.05 0 0.65
0.075 0 0.65
0.1 0 0.65
0 0.025 0.65
0.025 0.025 0.65
0.05 0.025 0.65
0.075 0.025 0.65
0.1 0.025 0.65
0 0.05 0.65
0.025 0.05 0.65
0.05 0.05 0.65
0.075 0.05 0.65
0.1 0.05 0.65
0 0.075 0.65
0.025 0.075 0.65
0.05 0.075 0.65
0.075 0.075 0.65
0.1 0.075 0.65
0 0.1 0.65
0.025 0.1 0.65
0.05 0.1 0.65
0.075 0.1 0.65
0.1 0.1 0.65
0 0 0.675
0.025 0 0.675
0.05 0 0.675
0.075 0 0.675
0.1 0 0.675
[...]
<PointData Vectors="Displacement">
<DataArray type="Float32" Name="Displacement" NumberOfComponents="3" format="ascii">
0 0 0
0 0 0
0 0 0
0 0 0
0 0 0
0 0 0
0 0 0
0 0 0
0 0 0
0 0 0
0 0 0
0 0 0
0 0 0
0 0 0
0 0 0
0 0 0
0 0 0
0 0 0
0 0 0
0 0 0
0 0 0
0 0 0
0 0 0
0 0 0
0 0 0
-1.72448e-10 0.0013611 -5.04002e-10
-6.01224e-11 0.0013611 -4.9318e-10
8.61777e-12 0.0013611 -4.96947e-10
6.6611e-11 0.0013611 -5.10062e-10
1.85526e-10 0.0013611 -4.98439e-10
-1.72757e-10 0.0013611 -4.89267e-10
-6.02179e-11 0.0013611 -5.02028e-10
1.70593e-11 0.0013611 -5.08253e-10
7.42404e-11 0.0013611 -4.93864e-10
2.01652e-10 0.0013611 -5.07845e-10
-1.734e-10 0.0013611 -4.89289e-10
-6.04381e-11 0.0013611 -4.97738e-10
1.25978e-11 0.0013611 -5.10849e-10
8.38685e-11 0.0013611 -4.98791e-10
1.81504e-10 0.0013611 -5.01314e-10
-1.22765e-10 0.0013611 -4.80911e-10
-5.46538e-11 0.0013611 -4.95435e-10
1.87098e-11 0.0013611 -4.84199e-10
7.41868e-11 0.0013611 -4.92516e-10
1.76375e-10 0.0013611 -4.81361e-10
-9.56557e-11 0.0013611 -4.93101e-10
-4.52526e-11 0.0013611 -4.84635e-10
9.03166e-12 0.0013611 -4.76128e-10
7.96774e-11 0.0013611 -4.51997e-10
1.49679e-10 0.0013611 -4.81793e-10
-1.95912e-10 0.00272136 -9.73937e-10
-6.74485e-11 0.00272136 -1.00021e-09
3.49074e-11 0.00272136 -1.00791e-09
1.09933e-10 0.00272136 -1.04229e-09
2.55419e-10 0.00272136 -1.10264e-09
-2.40288e-10 0.00272136 -1.00744e-09
-6.12441e-11 0.00272136 -9.90192e-10
3.13521e-11 0.00272136 -9.88906e-10
1.36776e-10 0.00272136 -1.0099e-09
2.39729e-10 0.00272136 -1.02423e-09
-2.11576e-10 0.00272136 -9.85585e-10
-6.43364e-11 0.00272136 -9.85762e-10
3.10566e-11 0.00272136 -1.02132e-09
1.21162e-10 0.00272136 -9.92967e-10
2.967e-10 0.00272136 -9.80139e-10
-1.68144e-10 0.00272136 -1.00114e-09
-7.40354e-11 0.00272136 -9.95284e-10
3.67044e-11 0.00272136 -9.9939e-10
1.12711e-10 0.00272136 -9.83745e-10
2.30098e-10 0.00272136 -1.00494e-09
-1.17058e-10 0.00272136 -1.0067e-09
-2.1481e-11 0.00272136 -9.82633e-10
4.41565e-11 0.00272136 -9.50666e-10
1.23522e-10 0.00272136 -9.87294e-10
1.8842e-10 0.00272136 -9.672e-10
-2.30776e-10 0.00408 -1.43408e-09
-6.99671e-11 0.00408 -1.45324e-09
3.22982e-11 0.00408 -1.45025e-09
8.29609e-11 0.00408 -1.40218e-09
3.69773e-10 0.00408 -1.48958e-09
-2.02097e-10 0.00408 -1.41129e-09
-5.69061e-11 0.00408 -1.43188e-09
5.33935e-11 0.00408 -1.43915e-09
1.0432e-10 0.00408 -1.48317e-09
3.09783e-10 0.00408 -1.47093e-09
-1.84121e-10 0.00408 -1.45899e-09
-8.99012e-11 0.00408 -1.4159e-09
5.73961e-11 0.00408 -1.42487e-09
1.79898e-10 0.00408 -1.46605e-09
2.56644e-10 0.00408 -1.45301e-09
-1.29114e-10 0.00408 -1.44958e-09
-4.71696e-11 0.00408 -1.45963e-09
5.78821e-11 0.00407999 -1.44247e-09
1.43876e-10 0.00408 -1.45747e-09
2.41076e-10 0.00408 -1.43845e-09
-2.31176e-10 0.00408 -1.44183e-09
1.00966e-11 0.00408 -1.43892e-09
5.03116e-11 0.00408 -1.53942e-09
1.28828e-10 0.00408 -1.40796e-09
2.56101e-10 0.00408 -1.46983e-09
-9.85589e-11 0.00543632 -1.81683e-09
-3.04663e-11 0.00543632 -1.9235e-09
9.44637e-11 0.00543632 -1.86506e-09
1.36293e-10 0.00543632 -1.88793e-09
3.30985e-10 0.00543632 -1.84652e-09
-1.78256e-10 0.00543632 -1.88554e-09
-4.11907e-11 0.00543632 -1.84859e-09
6.27805e-11 0.00543632 -1.89073e-09
1.16533e-10 0.00543632 -1.84368e-09
3.6725e-10 0.00543632 -1.88113e-09
-1.7203e-10 0.00543632 -1.8513e-09
-3.0318e-11 0.00543632 -1.866e-09
8.17748e-11 0.00543632 -1.85503e-09
1.34156e-10 0.00543632 -1.86581e-09
3.48544e-10 0.00543632 -1.88611e-09
-1.20981e-10 0.00543632 -1.88301e-09
-4.14012e-11 0.00543632 -1.8349e-09
8.22996e-11 0.00543632 -1.89847e-09
1.69617e-10 0.00543632 -1.86557e-09
2.62057e-10 0.00543632 -1.92432e-09
-1.07252e-10 0.00543632 -1.80941e-09
-2.22888e-11 0.00543632 -1.91799e-09
1.03147e-10 0.00543632 -1.90531e-09
1.56249e-10 0.00543632 -1.95577e-09
2.24833e-10 0.00543632 -1.86483e-09
-1.38338e-10 0.00678971 -2.32686e-09
-4.56485e-11 0.00678971 -2.17227e-09
9.67746e-11 0.00678971 -2.28707e-09
1.63637e-10 0.0067897 -2.3142e-09
3.75835e-10 0.0067897 -2.27185e-09
-1.97089e-10 0.00678971 -2.24934e-09
5.13822e-12 0.00678971 -2.26451e-09
1.16497e-10 0.00678971 -2.29121e-09
1.40795e-10 0.0067897 -2.24203e-09
2.551e-10 0.00678971 -2.22185e-09
-4.54503e-11 0.00678971 -2.23377e-09
-5.01876e-12 0.00678971 -2.24639e-09
1.41841e-10 0.00678971 -2.22436e-09
1.26237e-10 0.0067897 -2.23317e-09
2.12748e-10 0.0067897 -2.20209e-09
-6.27272e-11 0.00678971 -2.23089e-09
2.77536e-11 0.00678971 -2.22822e-09
1.31476e-10 0.00678971 -2.20458e-09
1.47152e-10 0.00678971 -2.24461e-09
2.35197e-10 0.0067897 -2.27733e-09
6.52551e-11 0.00678971 -2.34573e-09
5.50142e-11 0.00678971 -2.25474e-09
6.75744e-11 0.00678971 -2.24666e-09
1.40937e-10 0.0067897 -2.2561e-09
1.4215e-10 0.00678971 -2.20807e-09
-9.66551e-11 0.00813959 -2.62296e-09
-8.07985e-11 0.00813959 -2.64024e-09
7.44369e-11 0.00813959 -2.6305e-09
1.1439e-10 0.00813959 -2.60011e-09
4.20742e-10 0.00813959 -2.55309e-09
-9.83702e-11 0.00813959 -2.57474e-09
-3.30782e-11 0.00813959 -2.65259e-09
1.40488e-10 0.00813959 -2.57056e-09
2.02306e-10 0.00813959 -2.61859e-09
2.7131e-10 0.00813959 -2.61128e-09
-9.58558e-11 0.00813959 -2.56502e-09
4.53484e-11 0.00813959 -2.58965e-09
1.40139e-10 0.00813959 -2.60475e-09
1.87308e-10 0.00813959 -2.59947e-09
1.9494e-10 0.00813959 -2.66041e-09
6.44344e-11 0.00813959 -2.62083e-09
4.85741e-11 0.00813959 -2.6207e-09
1.34772e-10 0.00813959 -2.52395e-09
1.66455e-10 0.00813959 -2.6366e-09
2.21884e-10 0.00813959 -2.59483e-09
-2.84031e-11 0.00813959 -2.56977e-09
1.31934e-10 0.00813959 -2.65701e-09
1.70329e-10 0.00813959 -2.6088e-09
1.3395e-10 0.00813959 -2.49094e-09
3.44221e-10 0.00813959 -2.56567e-09
-1.90046e-10 0.0094854 -2.90094e-09
-9.27325e-12 0.0094854 -2.94248e-09
2.77816e-10 0.0094854 -2.81408e-09
3.37577e-10 0.0094854 -2.96083e-09
1.53448e-10 0.0094854 -2.87107e-09
-1.256e-10 0.0094854 -2.87195e-09
5.34626e-11 0.0094854 -2.89653e-09
1.73653e-10 0.0094854 -2.88991e-09
2.86158e-10 0.0094854 -2.89999e-09
3.16851e-10 0.0094854 -2.89924e-09
5.85854e-11 0.0094854 -2.8049e-09
4.69174e-11 0.0094854 -2.85335e-09
1.25178e-10 0.0094854 -2.8926e-09
2.1556e-10 0.0094854 -2.84585e-09
2.88273e-10 0.0094854 -2.95818e-09
-7.91067e-11 0.0094854 -2.85343e-09
1.15384e-10 0.0094854 -2.93593e-09
1.25242e-10 0.0094854 -2.88163e-09
2.38213e-10 0.0094854 -2.86104e-09
2.1854e-10 0.0094854 -2.86731e-09
1.48411e-10 0.0094854 -2.91014e-09
1.33373e-10 0.0094854 -2.83207e-09
2.14664e-10 0.0094854 -2.91027e-09
2.364e-10 0.0094854 -2.76108e-09
2.92009e-10 0.0094854 -2.80046e-09
-7.35279e-12 0.0108265 -3.14781e-09
1.23341e-11 0.0108265 -2.87165e-09
3.38576e-10 0.0108265 -3.06766e-09
2.38593e-10 0.0108265 -2.88715e-09
8.51614e-10 0.0108265 -3.11228e-09
-1.9029e-10 0.0108265 -2.99912e-09
1.73545e-10 0.0108265 -2.99129e-09
2.47065e-10 0.0108265 -3.02652e-09
2.48e-10 0.0108265 -3.08609e-09
6.1423e-10 0.0108265 -3.1064e-09
5.15454e-12 0.0108265 -3.06366e-09
1.04733e-10 0.0108265 -3.01741e-09
2.68624e-10 0.0108265 -3.0865e-09
1.84691e-10 0.0108265 -3.03375e-09
5.42111e-10 0.0108265 -3.03586e-09
1.27856e-10 0.0108265 -3.07005e-09
1.20874e-10 0.0108265 -3.01827e-09
2.3335e-10 0.0108265 -3.09137e-09
2.24941e-10 0.0108265 -2.99073e-09
4.29813e-10 0.0108265 -3.02082e-09
3.92465e-10 0.0108265 -3.18996e-09
1.02252e-10 0.0108265 -3.13889e-09
2.89126e-10 0.0108265 -3.20376e-09
2.80563e-10 0.0108265 -3.01125e-09
3.01655e-10 0.0108265 -2.89753e-09
2.13665e-11 0.0121623 -3.06762e-09
2.9666e-10 0.0121623 -3.20045e-09
3.20089e-10 0.0121623 -3.23522e-09
5.29617e-10 0.0121623 -3.37659e-09
3.81484e-10 0.0121623 -3.34352e-09
2.49895e-10 0.0121623 -3.27716e-09
1.97801e-10 0.0121623 -3.13849e-09
2.93959e-10 0.0121623 -3.1827e-09
3.73933e-10 0.0121623 -3.2061e-09
5.26347e-10 0.0121623 -3.31196e-09
1.8243e-10 0.0121623 -3.25091e-09
2.16235e-10 0.0121623 -3.18566e-09
3.70247e-10 0.0121623 -3.18301e-09
3.39483e-10 0.0121623 -3.21162e-09
5.52047e-10 0.0121623 -3.03425e-09
1.07288e-10 0.0121623 -3.38827e-09
3.63268e-10 0.0121623 -3.2692e-09
3.55886e-10 0.0121623 -3.19886e-09
4.54323e-10 0.0121623 -3.13646e-09
4.39453e-10 0.0121623 -3.17021e-09
4.59012e-10 0.0121623 -3.33371e-09
4.35973e-10 0.0121623 -3.39216e-09
3.01616e-10 0.0121623 -2.99936e-09
2.44876e-10 0.0121623 -3.192e-09
4.18348e-10 0.0121623 -3.23729e-09
3.68106e-11 0.0134923 -3.04474e-09
3.73731e-10 0.0134923 -3.25622e-09
5.28626e-10 0.0134923 -3.44108e-09
4.02334e-10 0.0134923 -3.18122e-09
8.5997e-10 0.0134923 -3.12334e-09
2.41879e-10 0.0134923 -3.17671e-09
3.25785e-10 0.0134923 -3.18327e-09
5.11622e-10 0.0134923 -3.29781e-09
5.60962e-10 0.0134923 -3.3347e-09
7.03297e-10 0.0134923 -3.2145e-09
7.56266e-11 0.0134923 -3.29357e-09
3.94444e-10 0.0134923 -3.16077e-09
4.34451e-10 0.0134923 -3.1864e-09
4.78172e-10 0.0134923 -3.13613e-09
6.58012e-10 0.0134923 -3.28609e-09
4.14974e-10 0.0134923 -3.28349e-09
4.07979e-10 0.0134923 -3.26954e-09
5.31404e-10 0.0134923 -3.11677e-09
4.8454e-10 0.0134923 -3.32258e-09
5.20206e-10 0.0134923 -3.25777e-09
4.18275e-10 0.0134923 -3.1513e-09
5.70522e-10 0.0134923 -3.26584e-09
5.55371e-10 0.0134923 -3.27912e-09
2.41437e-10 0.0134923 -3.21348e-09
7.84532e-10 0.0134923 -3.36858e-09
4.76824e-10 0.0148158 -2.78386e-09
4.74566e-10 0.0148158 -2.90622e-09
6.65513e-10 0.0148158 -3.05641e-09
7.83682e-10 0.0148158 -2.9945e-09
7.68607e-10 0.0148158 -2.79275e-09
4.07658e-10 0.0148158 -2.8261e-09
4.93228e-10 0.0148158 -2.99691e-09
5.44665e-10 0.0148158 -2.99995e-09
6.7947e-10 0.0148158 -3.0392e-09
7.81004e-10 0.0148158 -2.88514e-09
3.29669e-10 0.0148158 -2.93766e-09
5.70749e-10 0.0148158 -3.02571e-09
5.71549e-10 0.0148158 -2.98506e-09
5.85538e-10 0.0148158 -3.11106e-09
8.52541e-10 0.0148158 -3.04986e-09
4.20906e-10 0.0148158 -3.04331e-09
5.87941e-10 0.0148158 -3.0336e-09
6.04917e-10 0.0148158 -3.15339e-09
5.8382e-10 0.0148158 -3.04893e-09
7.51093e-10 0.0148158 -3.02812e-09
3.77593e-10 0.0148158 -2.98474e-09
5.68947e-10 0.0148158 -2.99824e-09
5.85475e-10 0.0148158 -3.1593e-09
7.99292e-10 0.0148158 -3.05216e-09
3.54126e-10 0.0148158 -3.06623e-09
9.63389e-10 0.0161328 -2.62533e-09
6.42211e-10 0.0161328 -2.43153e-09
7.7764e-10 0.0161328 -2.32817e-09
8.06136e-10 0.0161328 -2.82422e-09
7.59994e-10 0.0161328 -2.83215e-09
8.79476e-10 0.0161328 -2.44449e-09
6.99995e-10 0.0161328 -2.52979e-09
7.87049e-10 0.0161328 -2.59834e-09
7.27045e-10 0.0161328 -2.71105e-09
8.13045e-10 0.0161328 -2.77764e-09
8.69588e-10 0.0161328 -2.63389e-09
7.03862e-10 0.0161328 -2.65287e-09
7.55679e-10 0.0161328 -2.80621e-09
7.18683e-10 0.0161328 -2.55503e-09
7.73897e-10 0.0161328 -2.71266e-09
8.51587e-10 0.0161328 -2.59082e-09
6.37218e-10 0.0161328 -2.63625e-09
9.53103e-10 0.0161328 -2.59725e-09
7.56183e-10 0.0161328 -2.7118e-09
6.96124e-10 0.0161328 -2.70046e-09
8.94049e-10 0.0161328 -2.61178e-09
7.49302e-10 0.0161328 -2.51175e-09
8.83243e-10 0.0161328 -2.77998e-09
7.9939e-10 0.0161328 -2.81474e-09
7.36004e-10 0.0161328 -2.83809e-09
1.28135e-09 0.0174429 -2.1684e-09
1.21237e-09 0.0174429 -1.99376e-09
8.32868e-10 0.0174429 -2.05747e-09
7.23295e-10 0.0174429 -2.42436e-09
1.24804e-09 0.0174429 -2.27454e-09
1.12873e-09 0.0174429 -2.11764e-09
1.01888e-09 0.0174429 -2.04894e-09
9.02971e-10 0.0174429 -2.30325e-09
9.62272e-10 0.0174429 -2.26549e-09
9.3463e-10 0.0174429 -2.2469e-09
1.01268e-09 0.0174429 -2.16787e-09
8.91068e-10 0.0174429 -2.01935e-09
1.12059e-09 0.0174429 -2.16313e-09
1.07254e-09 0.0174429 -2.27457e-09
6.79158e-10 0.0174429 -2.32588e-09
7.96824e-10 0.0174429 -2.06759e-09
1.05988e-09 0.0174429 -2.07409e-09
1.17067e-09 0.0174429 -2.03147e-09
1.00339e-09 0.0174429 -2.19877e-09
9.6494e-10 0.0174429 -2.27764e-09
7.51611e-10 0.0174429 -1.89756e-09
1.07855e-09 0.0174429 -1.73407e-09
1.05591e-09 0.0174429 -1.87769e-09
1.03656e-09 0.0174429 -2.10222e-09
1.08172e-09 0.0174429 -2.28849e-09
1.90805e-09 0.0187461 -1.59657e-09
1.55039e-09 0.0187461 -1.60746e-09
1.08074e-09 0.0187461 -1.66044e-09
1.20627e-09 0.0187461 -1.76877e-09
7.80998e-10 0.0187461 -1.50083e-09
1.75458e-09 0.0187461 -1.44921e-09
1.35078e-09 0.0187461 -1.55212e-09
1.20293e-09 0.0187461 -1.605e-09
1.1944e-09 0.0187461 -1.62502e-09
1.13184e-09 0.0187461 -1.56038e-09
1.12955e-09 0.0187461 -1.51968e-09
1.39068e-09 0.0187461 -1.34323e-09
1.41944e-09 0.0187461 -1.32211e-09
1.25432e-09 0.0187461 -1.79278e-09
1.01455e-09 0.0187461 -1.64843e-09
1.09969e-09 0.0187461 -1.33827e-09
1.30165e-09 0.0187461 -1.25311e-09
1.57225e-09 0.0187461 -1.3056e-09
1.11589e-09 0.0187461 -1.48719e-09
1.03675e-09 0.0187461 -1.55555e-09
1.24487e-09 0.0187461 -8.26919e-10
1.26661e-09 0.0187461 -1.21251e-09
1.37244e-09 0.0187461 -1.191e-09
1.29529e-09 0.0187461 -1.29841e-09
1.30466e-09 0.0187461 -1.17657e-09
1.77083e-09 0.0200422 -8.19353e-10
1.90416e-09 0.0200422 -7.64402e-10
1.49389e-09 0.0200422 -9.57712e-10
1.5248e-09 0.0200422 -1.0288e-09
1.52139e-09 0.0200422 -6.30427e-10
1.98895e-09 0.0200422 -7.9765e-10
1.75793e-09 0.0200422 -6.69061e-10
1.60208e-09 0.0200422 -7.60849e-10
1.37996e-09 0.0200422 -6.69882e-10
1.26239e-09 0.0200422 -8.12954e-10
1.66304e-09 0.0200422 -6.0176e-10
1.68915e-09 0.0200422 -7.15131e-10
1.6103e-09 0.0200422 -6.04233e-10
1.37835e-09 0.0200422 -8.21363e-10
1.49866e-09 0.0200422 -9.9709e-10
1.7504e-09 0.0200422 -6.10602e-10
1.48312e-09 0.0200422 -4.0599e-10
1.61576e-09 0.0200422 -5.45859e-10
1.55262e-09 0.0200422 -6.86925e-10
1.50713e-09 0.0200422 -5.39478e-10
1.91113e-09 0.0200422 -6.83235e-10
1.23263e-09 0.0200422 -6.32964e-10
1.61874e-09 0.0200422 -3.65081e-10
1.37618e-09 0.0200422 -6.40481e-10
1.69033e-09 0.0200422 -2.84231e-10
1.82329e-09 0.0213306 1.19659e-10
2.10627e-09 0.0213306 4.13142e-10
2.06546e-09 0.0213306 1.40092e-10
1.72162e-09 0.0213306 2.45287e-10
1.66176e-09 0.0213306 2.56721e-10
2.12276e-09 0.0213306 1.95168e-10
2.18376e-09 0.0213306 1.67217e-10
2.05803e-09 0.0213306 2.61082e-10
1.70237e-09 0.0213306 2.16885e-10
1.40055e-09 0.0213306 2.99647e-10
2.08139e-09 0.0213306 3.18315e-10
2.0864e-09 0.0213306 3.69867e-10
2.04765e-09 0.0213306 2.85739e-10
1.66136e-09 0.0213306 2.90952e-10
1.74656e-09 0.0213306 4.89548e-10
2.38367e-09 0.0213306 2.86626e-10
1.95877e-09 0.0213306 3.23787e-10
1.84264e-09 0.0213306 5.71735e-10
1.69388e-09 0.0213306 6.43287e-10
1.96607e-09 0.0213306 5.90543e-10
2.45842e-09 0.0213306 2.38253e-10
2.11228e-09 0.0213306 2.1528e-10
1.60336e-09 0.0213306 5.98259e-11
2.13488e-09 0.0213306 1.06959e-09
1.415e-09 0.0213306 6.0034e-10
3.35898e-09 0.0226107 1.73789e-09
2.62876e-09 0.0226107 1.7419e-09
2.51206e-09 0.0226107 1.77199e-09
1.74936e-09 0.0226107 1.68422e-09
1.63273e-09 0.0226107 1.59758e-09
2.94698e-09 0.0226107 1.74227e-09
2.55163e-09 0.0226107 1.62001e-09
2.33869e-09 0.0226107 1.67837e-09
1.81001e-09 0.0226107 1.67158e-09
1.88687e-09 0.0226107 1.72753e-09
3.00968e-09 0.0226107 1.47686e-09
2.53808e-09 0.0226107 1.34046e-09
2.21058e-09 0.0226107 1.54371e-09
2.04691e-09 0.0226107 1.93578e-09
1.64476e-09 0.0226107 1.8092e-09
2.9499e-09 0.0226107 1.45643e-09
2.49058e-09 0.0226107 1.30138e-09
2.29171e-09 0.0226107 1.60622e-09
2.14293e-09 0.0226107 1.69705e-09
1.58056e-09 0.0226107 1.94319e-09
3.43268e-09 0.0226107 1.37325e-09
2.39644e-09 0.0226107 1.47874e-09
2.41833e-09 0.0226106 1.63286e-09
2.01403e-09 0.0226107 1.96165e-09
1.85379e-09 0.0226107 1.92986e-09
2.76028e-09 0.0238817 2.95103e-09
3.23182e-09 0.0238817 3.02673e-09
2.52798e-09 0.0238817 3.35967e-09
2.05423e-09 0.0238817 2.87993e-09
2.49446e-09 0.0238817 3.02061e-09
3.54535e-09 0.0238817 3.09672e-09
2.9127e-09 0.0238817 2.95059e-09
2.80703e-09 0.0238817 3.22988e-09
2.1552e-09 0.0238817 3.16639e-09
1.96963e-09 0.0238817 3.01203e-09
3.33356e-09 0.0238817 2.90517e-09
2.85346e-09 0.0238817 2.82352e-09
2.67076e-09 0.0238817 3.01289e-09
2.42838e-09 0.0238817 3.21684e-09
1.99385e-09 0.0238817 3.2898e-09
3.61188e-09 0.0238817 2.6916e-09
2.91805e-09 0.0238817 2.82985e-09
2.72263e-09 0.0238817 3.00054e-09
2.45297e-09 0.0238817 3.00318e-09
1.94212e-09 0.0238817 3.29993e-09
3.14862e-09 0.0238817 2.90677e-09
2.98527e-09 0.0238817 2.54506e-09
2.72342e-09 0.0238817 3.0092e-09
2.23826e-09 0.0238817 3.22422e-09
2.38129e-09 0.0238817 3.21739e-09
3.67745e-09 0.0251434 4.51693e-09
3.381e-09 0.0251434 4.85944e-09
2.91055e-09 0.0251434 4.4248e-09
2.54642e-09 0.0251434 4.69673e-09
2.9781e-09 0.0251434 4.24499e-09
3.58386e-09 0.0251434 4.69664e-09
3.42783e-09 0.0251434 4.46623e-09
3.13723e-09 0.0251434 4.66847e-09
2.58348e-09 0.0251434 4.58634e-09
2.55305e-09 0.0251434 4.39335e-09
3.75356e-09 0.0251434 4.50073e-09
3.50564e-09 0.0251434 4.57242e-09
3.13652e-09 0.0251434 4.45912e-09
2.7578e-09 0.0251434 4.62388e-09
2.53133e-09 0.0251434 4.51665e-09
3.76049e-09 0.0251434 4.47005e-09
3.44376e-09 0.0251434 4.5271e-09
3.07589e-09 0.0251434 4.72488e-09
2.87196e-09 0.0251434 4.75198e-09
2.49632e-09 0.0251434 4.78087e-09
3.5835e-09 0.0251434 4.74244e-09
3.34169e-09 0.0251434 4.35503e-09
3.02614e-09 0.0251434 4.7462e-09
2.68465e-09 0.0251434 4.83023e-09
2.82425e-09 0.0251434 5.02396e-09
3.53149e-09 0.0263958 6.70448e-09
3.88925e-09 0.0263958 6.60171e-09
3.70913e-09 0.0263958 6.67081e-09
2.77999e-09 0.0263958 6.64079e-09
3.22913e-09 0.0263958 6.57156e-09
4.35789e-09 0.0263958 6.60612e-09
3.83157e-09 0.0263958 6.62665e-09
3.36413e-09 0.0263958 6.36074e-09
3.021e-09 0.0263958 6.40951e-09
3.14396e-09 0.0263958 6.40099e-09
3.94846e-09 0.0263958 6.50374e-09
3.76223e-09 0.0263958 6.50416e-09
3.48909e-09 0.0263958 6.50867e-09
3.22525e-09 0.0263958 6.27185e-09
2.94921e-09 0.0263958 6.1934e-09
4.21012e-09 0.0263958 6.66323e-09
3.75906e-09 0.0263958 6.39677e-09
3.32763e-09 0.0263958 6.7697e-09
3.16383e-09 0.0263958 6.58515e-09
3.03327e-09 0.0263958 6.33041e-09
4.60156e-09 0.0263958 6.36554e-09
3.82089e-09 0.0263958 6.4924e-09
3.16237e-09 0.0263958 6.70851e-09
2.9221e-09 0.0263958 6.41398e-09
3.14706e-09 0.0263958 6.58497e-09
4.7826e-09 0.0276394 8.7949e-09
4.08632e-09 0.0276394 8.59377e-09
4.03134e-09 0.0276394 8.30269e-09
3.19271e-09 0.0276394 8.33003e-09
3.39544e-09 0.0276394 8.63968e-09
4.34994e-09 0.0276394 8.96418e-09
4.15108e-09 0.0276394 8.42163e-09
3.89609e-09 0.0276394 8.43621e-09
3.31559e-09 0.0276394 8.4919e-09
3.38359e-09 0.0276394 8.5704e-09
4.44696e-09 0.0276394 8.69581e-09
4.01648e-09 0.0276394 8.63275e-09
3.69603e-09 0.0276394 8.49202e-09
3.38472e-09 0.0276394 8.78827e-09
3.61021e-09 0.0276394 8.38218e-09
4.3907e-09 0.0276394 8.73011e-09
4.05146e-09 0.0276394 8.68236e-09
3.69751e-09 0.0276394 8.72004e-09
3.30431e-09 0.0276394 8.33994e-09
3.35489e-09 0.0276394 8.87302e-09
4.60735e-09 0.0276394 8.8157e-09
3.90842e-09 0.0276394 8.28524e-09
3.72187e-09 0.0276394 8.56917e-09
3.29594e-09 0.0276394 9.13118e-09
3.30918e-09 0.0276394 8.8508e-09
5.17116e-09 0.028875 1.08321e-08
4.59355e-09 0.028875 1.06967e-08
3.76076e-09 0.028875 1.00361e-08
3.61884e-09 0.028875 1.0509e-08
3.44491e-09 0.028875 1.09803e-08
4.88284e-09 0.028875 1.08672e-08
4.326e-09 0.028875 1.06202e-08
4.12234e-09 0.028875 1.06527e-08
3.69437e-09 0.028875 1.09137e-08
3.40523e-09 0.028875 1.099e-08
4.27688e-09 0.028875 1.07239e-08
4.35563e-09 0.028875 1.08898e-08
4.03454e-09 0.028875 1.0685e-08
3.50415e-09 0.028875 1.07506e-08
3.87362e-09 0.028875 1.10693e-08
4.73173e-09 0.028875 1.08044e-08
4.31535e-09 0.028875 1.08282e-08
3.85145e-09 0.028875 1.09373e-08
3.59518e-09 0.028875 1.10232e-08
3.42577e-09 0.028875 1.08408e-08
5.10641e-09 0.028875 1.10371e-08
4.22366e-09 0.028875 1.09269e-08
3.88326e-09 0.028875 1.09058e-08
3.50783e-09 0.028875 1.10323e-08
3.34003e-09 0.028875 1.13732e-08
4.59047e-09 0.0301026 1.26214e-08
4.28281e-09 0.0301026 1.26392e-08
4.26008e-09 0.0301026 1.27507e-08
3.78294e-09 0.0301026 1.28598e-08
3.59081e-09 0.0301026 1.24741e-08
4.43469e-09 0.0301026 1.28037e-08
4.34383e-09 0.0301026 1.27793e-08
4.14896e-09 0.0301026 1.30224e-08
3.67104e-09 0.0301026 1.29105e-08
3.96345e-09 0.0301026 1.32849e-08
4.59879e-09 0.0301026 1.29717e-08
4.43758e-09 0.0301026 1.31207e-08
4.10981e-09 0.0301026 1.32268e-08
3.49801e-09 0.0301026 1.32897e-08
4.22213e-09 0.0301026 1.31178e-08
5.2155e-09 0.0301026 1.29879e-08
4.42311e-09 0.0301026 1.30969e-08
3.91669e-09 0.0301026 1.33093e-08
3.46676e-09 0.0301026 1.30667e-08
3.82173e-09 0.0301026 1.33977e-08