<?xml version="1.0"?>
<VTKFile type="UnstructuredGrid" version="0.1" byte_order="LittleEndian">
<UnstructuredGrid>
<Piece NumberOfPoints="1025" NumberOfCells="640">
<Points>
<DataArray type="Float32" NumberOfComponents="3" format="ascii">
0 0 0
0.025 0 0
0.05 0 0
0.075 0 0
0.1 0 0
0 0.025 0
0.025 0.025 0
0.05 0.025 0
0.075 0.025 0
0.1 0.025 0
0 0.05 0
0.025 0.05 0
0.05 0.05 0
0.075 0.05 0
0.1 0.05 0
0 0.075 0
0.025 0.075 0
0.05 0.075 0
0.075 0.075 0
0.1 0.075 0
0 0.1 0
0.025 0.1 0
0.05 0.1 0
0.075 0.1 0
0.1 0.1 0
0 0 0.025
0.025 0 0.025
0.05 0 0.025
0.075 0 0.025
0.1 0 0.025
0 0.025 0.025
0.025 0.025 0.025
0.05 0.025 0.025
0.075 0.025 0.025
0.1 0.025 0.025
0 0.05 0.025
0.025 0.05 0.025
0.05 0.05 0.025
0.075 0.05 0.025
0.1 0.05 0.025
0 0.075 0.025
0.025 0.075 0.025
0.05 0.075 0.025
0.075 0.075 0.025
0.1 0.075 0.025
0 0.1 0.025
0.025 0.1 0.025
0.05 0.1 0.025
0.075 0.1 0.025
0.1 0.1 0.025
0 0 0.05
0.025 0 0.05
0.05 0 0.05
0.075 0 0.05
0.1 0 0.05
0 0.025 0.05
0.025 0.025 0.05
0.05 0.025 0.05
0.075 0.025 0.05
0.1 0.025 0.05
0 0.05 0.05
0.025 0.05 0.05
0.05 0.05 0.05
0.075 0.05 0.05
0.1 0.05 0.05
0 0.075 0.05
0.025 0.075 0.05
0.05 0.075 0.05
0.075 0.075 0.05
0.1 0.075 0.05
0 0.1 0.05
0.025 0.1 0.05
0.05 0.1 0.05
0.075 0.1 0.05
0.1 0.1 0.05
0 0 0.075
0.025 0 0.075
0.05 0 0.075
0.075 0 0.075
0.1 0 0.075
0 0.025 0.075
0.025 0.025 0.075
0.05 0.025 0.075
0.075 0.025 0.075
0.1 0.025 0.075
0 0.05 0.075
0.025 0.05 0.075
0.05 0.05 0.075
0.075 0.05 0.075
0.1 0.05 0.075
0 0.075 0.075
0.025 0.075 0.075
0.05 0.075 0.075
0.075 0.075 0.075
0.1 0.075 0.075
0 0.1 0.075
0.025 0.1 0.075
0.05 0.1 0.075
0.075 0.1 0.075
0.1 0.1 0.075
0 0 0.1
0.025 0 0.1
0.05 0 0.1
0.075 0 0.1
0.1 0 0.1
0 0.025 0.1
0.025 0.025 0.1
0.05 0.025 0.1
0.075 0.025 0.1
0.1 0.025 0.1
0 0.05 0.1
0.025 0.05 0.1
0.05 0.05 0.1
0.075 0.05 0.1
0.1 0.05 0.1
0 0.075 0.1
0.025 0.075 0.1
0.05 0.075 0.1
0.075 0.075 0.1
0.1 0.075 0.1
0 0.1 0.1
0.025 0.1 0.1
0.05 0.1 0.1
0.075 0.1 0.1
0.1 0.1 0.1
0 0 0.125
0.025 0 0.125
0.05 0 0.125
0.075 0 0.125
0.1 0 0.125
0 0.025 0.125
0.025 0.025 0.125
0.05 0.025 0.125
0.075 0.025 0.125
0.1 0.025 0.125
0 0.05 0.125
0.025 0.05 0.125
0.05 0.05 0.125
0.075 0.05 0.125
0.1 0.05 0.125
0 0.075 0.125
0.025 0.075 0.125
0.05 0.075 0.125
0.075 0.075 0.125
0.1 0.075 0.125
0 0.1 0.125
0.025 0.1 0.125
0.05 0.1 0.125
0.075 0.1 0.125
0.1 0.1 0.125
0 0 0.15
0.025 0 0.15
0.05 0 0.15
0.075 0 0.15
0.1 0 0.15
0 0.025 0.15
0.025 0.025 0.15
0.05 0.025 0.15
0.075 0.025 0.15
0.1 0.025 0.15
0 0.05 0.15
0.025 0.05 0.15
0.05 0.05 0.15
0.075 0.05 0.15
0.1 0.05 0.15
0 0.075 0.15
0.025 0.075 0.15
0.05 0.075 0.15
0.075 0.075 0.15
0.1 0.075 0.15
0 0.1 0.15
0.025 0.1 0.15
0.05 0.1 0.15
0.075 0.1 0.15
0.1 0.1 0.15
0 0 0.175
0.025 0 0.175
0.05 0 0.175
0.075 0 0.175
0.1 0 0.175
0 0.025 0.175
0.025 0.025 0.175
0.05 0.025 0.175
0.075 0.025 0.175
0.1 0.025 0.175
0 0.05 0.175
0.025 0.05 0.175
0.05 0.05 0.175
0.075 0.05 0.175
0.1 0.05 0.175
0 0.075 0.175
0.025 0.075 0.175
0.05 0.075 0.175
0.075 0.075 0.175
0.1 0.075 0.175
0 0.1 0.175
0.025 0.1 0.175
0.05 0.1 0.175
0.075 0.1 0.175
0.1 0.1 0.175
0 0 0.2
0.025 0 0.2
0.05 0 0.2
0.075 0 0.2
0.1 0 0.2
0 0.025 0.2
0.025 0.025 0.2
0.05 0.025 0.2
0.075 0.025 0.2
0.1 0.025 0.2
0 0.05 0.2
0.025 0.05 0.2
0.05 0.05 0.2
0.075 0.05 0.2
0.1 0.05 0.2
0 0.075 0.2
0.025 0.075 0.2
0.05 0.075 0.2
0.075 0.075 0.2
0.1 0.075 0.2
0 0.1 0.2
0.025 0.1 0.2
0.05 0.1 0.2
0.075 0.1 0.2
0.1 0.1 0.2
0 0 0.225
0.025 0 0.225
0.05 0 0.225
0.075 0 0.225
0.1 0 0.225
0 0.025 0.225
0.025 0.025 0.225
0.05 0.025 0.225
0.075 0.025 0.225
0.1 0.025 0.225
0 0.05 0.225
0.025 0.05 0.225
0.05 0.05 0.225
0.075 0.05 0.225
0.1 0.05 0.225
0 0.075 0.225
0.025 0.075 0.225
0.05 0.075 0.225
0.075 0.075 0.225
0.1 0.075 0.225
0 0.1 0.225
0.025 0.1 0.225
0.05 0.1 0.225
0.075 0.1 0.225
0.1 0.1 0.225
0 0 0.25
0.025 0 0.25
0.05 0 0.25
0.075 0 0.25
0.1 0 0.25
0 0.025 0.25
0.025 0.025 0.25
0.05 0.025 0.25
0.075 0.025 0.25
0.1 0.025 0.25
0 0.05 0.25
0.025 0.05 0.25
0.05 0.05 0.25
0.075 0.05 0.25
0.1 0.05 0.25
0 0.075 0.25
0.025 0.075 0.25
0.05 0.075 0.25
0.075 0.075 0.25
0.1 0.075 0.25
0 0.1 0.25
0.025 0.1 0.25
0.05 0.1 0.25
0.075 0.1 0.25
0.1 0.1 0.25
0 0 0.275
0.025 0 0.275
0.05 0 0.275
0.075 0 0.275
0.1 0 0.275
0 0.025 0.275
0.025 0.025 0.275
0.05 0.025 0.275
0.075 0.025 0.275
0.1 0.025 0.275
0 0.05 0.275
0.025 0.05 0.275
0.05 0.05 0.275
0.075 0.05 0.275
0.1 0.05 0.275
0 0.075 0.275
0.025 0.075 0.275
0.05 0.075 0.275
0.075 0.075 0.275
0.1 0.075 0.275
0 0.1 0.275
0.025 0.1 0.275
0.05 0.1 0.275
0.075 0.1 0.275
0.1 0.1 0.275
0 0 0.3
0.025 0 0.3
0.05 0 0.3
0.075 0 0.3
0.1 0 0.3
0 0.025 0.3
0.025 0.025 0.3
0.05 0.025 0.3
0.075 0.025 0.3
0.1 0.025 0.3
0 0.05 0.3
0.025 0.05 0.3
0.05 0.05 0.3
0.075 0.05 0.3
0.1 0.05 0.3
0 0.075 0.3
0.025 0.075 0.3
0.05 0.075 0.3
0.075 0.075 0.3
0.1 0.075 0.3
0 0.1 0.3
0.025 0.1 0.3
0.05 0.1 0.3
0.075 0.1 0.3
0.1 0.1 0.3
0 0 0.325
0.025 0 0.325
0.05 0 0.325
0.075 0 0.325
0.1 0 0.325
0 0.025 0.325
0.025 0.025 0.325
0.05 0.025 0.325
0.075 0.025 0.325
0.1 0.025 0.325
0 0.05 0.325
0.025 0.05 0.325
0.05 0.05 0.325
0.075 0.05 0.325
0.1 0.05 0.325
0 0.075 0.325
0.025 0.075 0.325
0.05 0.075 0.325
0.075 0.075 0.325
0.1 0.075 0.325
0 0.1 0.325
0.025 0.1 0.325
0.05 0.1 0.325
0.075 0.1 0.325
0.1 0.1 0.325
0 0 0.35
0.025 0 0.35
0.05 0 0.35
0.075 0 0.35
0.1 0 0.35
0 0.025 0.35
0.025 0.025 0.35
0.05 0.025 0.35
0.075 0.025 0.35
0.1 0.025 0.35
0 0.05 0.35
0.025 0.05 0.35
0.05 0.05 0.35
0.075 0.05 0.35
0.1 0.05 0.35
0 0.075 0.35
0.025 0.075 0.35
0.05 0.075 0.35
0.075 0.075 0.35
0.1 0.075 0.35
0 0.1 0.35
0.025 0.1 0.35
0.05 0.1 0.35
0.075 0.1 0.35
0.1 0.1 0.35
0 0 0.375
0.025 0 0.375
0.05 0 0.375
0.075 0 0.375
0.1 0 0.375
0 0.025 0.375
0.025 0.025 0.375
0.05 0.025 0.375
0.075 0.025 0.375
0.1 0.025 0.375
0 0.05 0.375
0.025 0.05 0.375
0.05 0.05 0.375
0.075 0.05 0.375
0.1 0.05 0.375
0 0.075 0.375
0.025 0.075 0.375
0.05 0.075 0.375
0.075 0.075 0.375
0.1 0.075 0.375
0 0.1 0.375
0.025 0.1 0.375
0.05 0.1 0.375
0.075 0.1 0.375
0.1 0.1 0.375
0 0 0.4
0.025 0 0.4
0.05 0 0.4
0.075 0 0.4
0.1 0 0.4
0 0.025 0.4
0.025 0.025 0.4
0.05 0.025 0.4
0.075 0.025 0.4
0.1 0.025 0.4
0 0.05 0.4
0.025 0.05 0.4
0.05 0.05 0.4
0.075 0.05 0.4
0.1 0.05 0.4
0 0.075 0.4
0.025 0.075 0.4
0.05 0.075 0.4
0.075 0.075 0.4
0.1 0.075 0.4
0 0.1 0.4
0.025 0.1 0.4
0.05 0.1 0.4
0.075 0.1 0.4
0.1 0.1 0.4
0 0 0.425
0.025 0 0.425
0.05 0 0.425
0.075 0 0.425
0.1 0 0.425
0 0.025 0.425
0.025 0.025 0.425
0.05 0.025 0.425
0.075 0.025 0.425
0.1 0.025 0.425
0 0.05 0.425
0.025 0.05 0.425
0.05 0.05 0.425
0.075 0.05 0.425
0.1 0.05 0.425
0 0.075 0.425
0.025 0.075 0.425
0.05 0.075 0.425
0.075 0.075 0.425
0.1 0.075 0.425
0 0.1 0.425
0.025 0.1 0.425
0.05 0.1 0.425
0.075 0.1 0.425
0.1 0.1 0.425
0 0 0.45
0.025 0 0.45
0.05 0 0.45
0.075 0 0.45
0.1 0 0.45
0 0.025 0.45
0.025 0.025 0.45
0.05 0.025 0.45
0.075 0.025 0.45
0.1 0.025 0.45
0 0.05 0.45
0.025 0.05 0.45
0.05 0.05 0.45
0.075 0.05 0.45
0.1 0.05 0.45
0 0.075 0.45
0.025 0.075 0.45
0.05 0.075 0.45
0.075 0.075 0.45
0.1 0.075 0.45
0 0.1 0.45
0.025 0.1 0.45
0.05 0.1 0.45
0.075 0.1 0.45
0.1 0.1 0.45
0 0 0.475
0.025 0 0.475
0.05 0 0.475
0.075 0 0.475
0.1 0 0.475
0 0.025 0.475
0.025 0.025 0.475
0.05 0.025 0.475
0.075 0.025 0.475
0.1 0.025 0.475
0 0.05 0.475
0.025 0.05 0.475
0.05 0.05 0.475
0.075 0.05 0.475
0.1 0.05 0.475
0 0.075 0.475
0.025 0.075 0.475
0.05 0.075 0.475
0.075 0.075 0.475
0.1 0.075 0.475
0 0.1 0.475
0.025 0.1 0.475
0.05 0.1 0.475
0.075 0.1 0.475
0.1 0.1 0.475
0 0 0.5
0.025 0 0.5
0.05 0 0.5
0.075 0 0.5
0.1 0 0.5
0 0.025 0.5
0.025 0.025 0.5
0.05 0.025 0.5
0.075 0.025 0.5
0.1 0.025 0.5
0 0.05 0.5
0.025 0.05 0.5
0.05 0.05 0.5
0.075 0.05 0.5
0.1 0.05 0.5
0 0.075 0.5
0.025 0.075 0.5
0.05 0.075 0.5
0.075 0.075 0.5
0.1 0.075 0.5
0 0.1 0.5
0.025 0.1 0.5
0.05 0.1 0.5
0.075 0.1 0.5
0.1 0.1 0.5
0 0 0.525
0.025 0 0.525
0.05 0 0.525
0.075 0 0.525
0.1 0 0.525
0 0.025 0.525
0.025 0.025 0.525
0.05 0.025 0.525
0.075 0.025 0.525
0.1 0.025 0.525
0 0.05 0.525
0.025 0.05 0.525
0.05 0.05 0.525
0.075 0.05 0.525
0.1 0.05 0.525
0 0.075 0.525
0.025 0.075 0.525
0.05 0.075 0.525
0.075 0.075 0.525
0.1 0.075 0.525
0 0.1 0.525
0.025 0.1 0.525
0.05 0.1 0.525
0.075 0.1 0.525
0.1 0.1 0.525
0 0 0.55
0.025 0 0.55
0.05 0 0.55
0.075 0 0.55
0.1 0 0.55
0 0.025 0.55
0.025 0.025 0.55
0.05 0.025 0.55
0.075 0.025 0.55
0.1 0.025 0.55
0 0.05 0.55
0.025 0.05 0.55
0.05 0.05 0.55
0.075 0.05 0.55
0.1 0.05 0.55
0 0.075 0.55
0.025 0.075 0.55
0.05 0.075 0.55
0.075 0.075 0.55
0.1 0.075 0.55
0 0.1 0.55
0.025 0.1 0.55
0.05 0.1 0.55
0.075 0.1 0.55
0.1 0.1 0.55
0 0 0.575
0.025 0 0.575
0.05 0 0.575
0.075 0 0.575
0.1 0 0.575
0 0.025 0.575
0.025 0.025 0.575
0.05 0.025 0.575
0.075 0.025 0.575
0.1 0.025 0.575
0 0.05 0.575
0.025 0.05 0.575
0.05 0.05 0.575
0.075 0.05 0.575
0.1 0.05 0.575
0 0.075 0.575
0.025 0.075 0.575
0.05 0.075 0.575
0.075 0.075 0.575
0.1 0.075 0.575
0 0.1 0.575
0.025 0.1 0.575
0.05 0.1 0.575
0.075 0.1 0.575
0.1 0.1 0.575
0 0 0.6
0.025 0 0.6
0.05 0 0.6
0.075 0 0.6
0.1 0 0.6
0 0.025 0.6
0.025 0.025 0.6
0.05 0.025 0.6
0.075 0.025 0.6
0.1 0.025 0.6
0 0.05 0.6
0.025 0.05 0.6
0.05 0.05 0.6
0.075 0.05 0.6
0.1 0.05 0.6
0 0.075 0.6
0.025 0.075 0.6
0.05 0.075 0.6
0.075 0.075 0.6
0.1 0.075 0.6
0 0.1 0.6
0.025 0.1 0.6
0.05 0.1 0.6
0.075 0.1 0.6
0.1 0.1 0.6
0 0 0.625
0.025 0 0.625
0.05 0 0.625
0.075 0 0.625
0.1 0 0.625
0 0.025 0.625
0.025 0.025 0.625
0.05 0.025 0.625
0.075 0.025 0.625
0.1 0.025 0.625
0 0.05 0.625
0.025 0.05 0.625
0.05 0.05 0.625
0.075 0.05 0.625
0.1 0.05 0.625
0 0.075 0.625
0.025 0.075 0.625
0.05 0.075 0.625
0.075 0.075 0.625
0.1 0.075 0.625
0 0.1 0.625
0.025 0.1 0.625
0.05 0.1 0.625
0.075 0.1 0.625
0.1 0.1 0.625
0 0 0.65
0.025 0 0.65
0.05 0 0.65
0.075 0 0.65
0.1 0 0.65
0 0.025 0.65
0.025 0.025 0.65
0.05 0.025 0.65
0.075 0.025 0.65
0.1 0.025 0.65
0 0.05 0.65
0.025 0.05 0.65
0.05 0.05 0.65
0.075 0.05 0.65
0.1 0.05 0.65
0 0.075 0.65
0.025 0.075 0.65
0.05 0.075 0.65
0.075 0.075 0.65
0.1 0.075 0.65
0 0.1 0.65
0.025 0.1 0.65
0.05 0.1 0.65
0.075 0.1 0.65
0.1 0.1 0.65
0 0 0.675
0.025 0 0.675
0.05 0 0.675
0.075 0 0.675
0.1 0 0.675
[...]
<PointData Vectors="Displacement">
<DataArray type="Float32" Name="Displacement" NumberOfComponents="3" format="ascii">
0 0 0
0 0 0
0 0 0
0 0 0
0 0 0
0 0 0
0 0 0
0 0 0
0 0 0
0 0 0
0 0 0
0 0 0
0 0 0
0 0 0
0 0 0
0 0 0
0 0 0
0 0 0
0 0 0
0 0 0
0 0 0
0 0 0
0 0 0
0 0 0
0 0 0
6.25692e-10 0.00140906 5.35709e-10
5.2979e-10 0.00140906 5.09572e-10
4.82227e-10 0.00140906 5.3709e-10
3.94275e-10 0.00140906 5.49457e-10
3.08853e-10 0.00140906 5.2066e-10
6.35007e-10 0.00140906 5.16869e-10
5.34889e-10 0.00140906 5.13194e-10
4.68465e-10 0.00140906 5.19126e-10
4.09765e-10 0.00140906 5.34638e-10
3.09038e-10 0.00140906 5.24756e-10
6.3408e-10 0.00140906 5.12376e-10
5.40672e-10 0.00140906 5.19413e-10
4.68132e-10 0.00140906 5.22503e-10
4.17261e-10 0.00140906 5.43677e-10
3.19926e-10 0.00140906 5.52689e-10
6.80126e-10 0.00140906 5.2675e-10
5.46644e-10 0.00140906 5.23175e-10
4.8061e-10 0.00140906 5.48503e-10
4.12958e-10 0.00140906 5.57699e-10
2.80924e-10 0.00140906 5.56112e-10
6.78234e-10 0.00140906 5.6117e-10
5.55699e-10 0.00140906 5.76556e-10
4.97077e-10 0.00140906 5.46971e-10
4.07961e-10 0.00140906 5.59597e-10
2.75821e-10 0.00140906 5.8774e-10
1.0922e-09 0.002817 1.02694e-09
1.00309e-09 0.002817 1.06613e-09
9.4145e-10 0.002817 1.11243e-09
8.44053e-10 0.002817 1.06827e-09
7.95815e-10 0.002817 1.06146e-09
1.09224e-09 0.002817 1.04676e-09
1.03571e-09 0.002817 1.04819e-09
9.33383e-10 0.002817 1.08122e-09
8.49649e-10 0.002817 1.07694e-09
7.97991e-10 0.002817 1.08403e-09
1.15167e-09 0.002817 1.02394e-09
1.04889e-09 0.002817 1.03096e-09
9.49641e-10 0.002817 1.03838e-09
8.39507e-10 0.002817 1.09244e-09
7.85148e-10 0.002817 1.10912e-09
1.20609e-09 0.002817 1.02128e-09
1.05286e-09 0.002817 1.04549e-09
9.76257e-10 0.002817 1.07367e-09
8.47293e-10 0.002817 1.10212e-09
7.16997e-10 0.002817 1.08027e-09
1.32627e-09 0.002817 1.03687e-09
1.10639e-09 0.002817 1.02016e-09
9.45814e-10 0.002817 1.13648e-09
8.41505e-10 0.002817 1.11316e-09
7.27805e-10 0.002817 1.08594e-09
1.50369e-09 0.0042228 1.56034e-09
1.50993e-09 0.0042228 1.56328e-09
1.39728e-09 0.0042228 1.63987e-09
1.24581e-09 0.0042228 1.64477e-09
1.2903e-09 0.0042228 1.57078e-09
1.59397e-09 0.0042228 1.52554e-09
1.49726e-09 0.0042228 1.57867e-09
1.42998e-09 0.0042228 1.58471e-09
1.29318e-09 0.0042228 1.61917e-09
1.21342e-09 0.0042228 1.59179e-09
1.61506e-09 0.0042228 1.53143e-09
1.51499e-09 0.0042228 1.53342e-09
1.42275e-09 0.0042228 1.60553e-09
1.33043e-09 0.0042228 1.61326e-09
1.201e-09 0.0042228 1.5926e-09
1.68319e-09 0.0042228 1.48942e-09
1.55734e-09 0.0042228 1.52811e-09
1.42947e-09 0.0042228 1.55075e-09
1.30688e-09 0.0042228 1.56069e-09
1.19683e-09 0.0042228 1.57353e-09
1.68048e-09 0.0042228 1.48524e-09
1.56115e-09 0.0042228 1.43052e-09
1.47895e-09 0.0042228 1.49051e-09
1.29594e-09 0.0042228 1.60467e-09
1.19284e-09 0.0042228 1.59006e-09
2.0604e-09 0.00562555 1.93108e-09
1.90221e-09 0.00562555 1.97396e-09
1.91428e-09 0.00562555 1.96607e-09
1.69262e-09 0.00562555 1.96795e-09
1.77605e-09 0.00562555 1.9756e-09
1.94008e-09 0.00562555 1.96038e-09
1.95621e-09 0.00562555 1.93629e-09
1.89717e-09 0.00562555 1.99843e-09
1.74858e-09 0.00562555 2.01731e-09
1.73603e-09 0.00562555 1.96267e-09
2.01617e-09 0.00562555 1.93806e-09
1.98407e-09 0.00562555 1.93851e-09
1.8993e-09 0.00562555 1.94975e-09
1.78684e-09 0.00562555 2.00963e-09
1.72726e-09 0.00562555 1.98763e-09
2.07284e-09 0.00562555 1.91011e-09
1.98004e-09 0.00562555 1.93487e-09
1.93363e-09 0.00562555 1.92132e-09
1.82548e-09 0.00562555 1.94938e-09
1.72341e-09 0.00562555 1.99858e-09
1.99289e-09 0.00562555 1.85023e-09
2.03615e-09 0.00562555 1.94269e-09
1.89273e-09 0.00562555 1.86296e-09
1.88321e-09 0.00562555 1.93646e-09
1.69255e-09 0.00562555 1.86214e-09
2.25336e-09 0.00702448 2.2789e-09
2.37984e-09 0.00702448 2.15901e-09
2.28836e-09 0.00702448 2.20276e-09
2.21982e-09 0.00702448 2.28764e-09
2.31774e-09 0.00702448 2.27804e-09
2.3815e-09 0.00702448 2.19926e-09
2.36165e-09 0.00702448 2.28391e-09
2.36421e-09 0.00702448 2.22116e-09
2.24238e-09 0.00702448 2.29933e-09
2.27649e-09 0.00702448 2.31428e-09
2.47536e-09 0.00702448 2.19231e-09
2.36991e-09 0.00702448 2.22014e-09
2.40843e-09 0.00702448 2.26343e-09
2.26148e-09 0.00702448 2.3625e-09
2.19771e-09 0.00702448 2.37737e-09
2.45276e-09 0.00702448 2.26196e-09
2.4327e-09 0.00702448 2.26732e-09
2.37417e-09 0.00702448 2.35107e-09
2.25747e-09 0.00702448 2.30773e-09
2.31837e-09 0.00702448 2.29645e-09
2.32201e-09 0.00702448 2.29814e-09
2.49015e-09 0.00702448 2.33564e-09
2.45729e-09 0.00702448 2.43186e-09
2.30103e-09 0.00702448 2.27406e-09
2.25363e-09 0.00702448 2.35642e-09
2.74367e-09 0.0084189 2.5221e-09
2.61592e-09 0.00841889 2.56183e-09
2.72016e-09 0.0084189 2.37439e-09
2.65759e-09 0.00841889 2.56403e-09
2.86537e-09 0.00841889 2.62117e-09
2.58661e-09 0.0084189 2.47735e-09
2.70772e-09 0.00841889 2.44198e-09
2.78544e-09 0.00841889 2.46169e-09
2.76068e-09 0.00841889 2.51989e-09
2.72007e-09 0.00841889 2.57891e-09
2.68232e-09 0.00841889 2.50231e-09
2.78723e-09 0.00841889 2.50385e-09
2.79854e-09 0.00841889 2.43334e-09
2.78383e-09 0.00841889 2.58108e-09
2.68248e-09 0.00841889 2.54137e-09
2.79791e-09 0.00841889 2.51584e-09
2.8483e-09 0.00841889 2.52207e-09
2.83077e-09 0.00841889 2.58656e-09
2.75274e-09 0.00841889 2.52945e-09
2.6743e-09 0.00841889 2.54664e-09
2.79978e-09 0.00841889 2.61795e-09
2.87024e-09 0.00841889 2.46368e-09
2.86559e-09 0.00841889 2.53475e-09
2.61147e-09 0.00841889 2.58546e-09
2.8126e-09 0.00841889 2.48255e-09
2.68438e-09 0.0098081 2.75473e-09
3.01672e-09 0.0098081 2.57377e-09
3.10808e-09 0.0098081 2.70771e-09
3.31159e-09 0.0098081 2.47036e-09
3.18881e-09 0.00980809 2.68564e-09
2.92009e-09 0.0098081 2.68439e-09
2.993e-09 0.0098081 2.64246e-09
3.12846e-09 0.0098081 2.66654e-09
3.25823e-09 0.00980809 2.68563e-09
3.04262e-09 0.0098081 2.70635e-09
3.05356e-09 0.0098081 2.71474e-09
3.11405e-09 0.00980809 2.62495e-09
3.21421e-09 0.00980809 2.72464e-09
3.20042e-09 0.00980809 2.69732e-09
3.26352e-09 0.00980809 2.64783e-09
3.178e-09 0.00980809 2.71168e-09
3.23245e-09 0.0098081 2.66318e-09
3.21025e-09 0.00980809 2.57738e-09
3.17477e-09 0.00980809 2.67603e-09
3.10898e-09 0.00980809 2.65514e-09
3.04189e-09 0.00980809 2.78248e-09
3.31777e-09 0.0098081 2.76091e-09
3.30427e-09 0.00980809 2.69786e-09
3.16948e-09 0.0098081 2.62013e-09
3.08449e-09 0.00980809 2.68752e-09
3.52673e-09 0.0111913 2.59729e-09
3.04669e-09 0.0111913 2.64526e-09
3.41732e-09 0.0111913 2.53409e-09
3.50752e-09 0.0111913 2.7809e-09
3.81643e-09 0.0111913 2.49512e-09
3.03914e-09 0.0111913 2.67569e-09
3.44196e-09 0.0111913 2.67208e-09
3.51486e-09 0.0111913 2.69302e-09
3.48429e-09 0.0111913 2.66477e-09
3.82831e-09 0.0111913 2.67537e-09
3.18872e-09 0.0111913 2.64851e-09
3.41666e-09 0.0111913 2.63539e-09
3.58473e-09 0.0111913 2.62831e-09
3.47557e-09 0.0111913 2.68136e-09
3.75393e-09 0.0111913 2.74693e-09
3.45894e-09 0.0111913 2.80249e-09
3.48702e-09 0.0111913 2.741e-09
3.55257e-09 0.0111913 2.68838e-09
3.52462e-09 0.0111913 2.77063e-09
3.71542e-09 0.0111913 2.66942e-09
3.91254e-09 0.0111913 2.83167e-09
3.29628e-09 0.0111913 2.82707e-09
3.49805e-09 0.0111913 2.51952e-09
3.54577e-09 0.0111913 2.65618e-09
3.50633e-09 0.0111913 2.75813e-09
3.4937e-09 0.0125676 2.41974e-09
3.75112e-09 0.0125676 2.23564e-09
3.76474e-09 0.0125676 2.21577e-09
3.76146e-09 0.0125676 2.30612e-09
4.05347e-09 0.0125676 2.44387e-09
3.50273e-09 0.0125676 2.34533e-09
3.55756e-09 0.0125676 2.29934e-09
3.75715e-09 0.0125676 2.29261e-09
3.85103e-09 0.0125676 2.35431e-09
3.78681e-09 0.0125676 2.38396e-09
3.37952e-09 0.0125676 2.45985e-09
3.66615e-09 0.0125676 2.41778e-09
3.83551e-09 0.0125676 2.32407e-09
3.85078e-09 0.0125676 2.43416e-09
4.12882e-09 0.0125676 2.6263e-09
3.64995e-09 0.0125676 2.33838e-09
3.65997e-09 0.0125676 2.45023e-09
3.85767e-09 0.0125676 2.51697e-09
3.96281e-09 0.0125676 2.56254e-09
3.91203e-09 0.0125676 2.58497e-09
3.98412e-09 0.0125676 2.38765e-09
3.81894e-09 0.0125676 2.44756e-09
3.76493e-09 0.0125676 2.56355e-09
3.92407e-09 0.0125676 2.61956e-09
3.8831e-09 0.0125676 2.5039e-09
3.74013e-09 0.0139361 1.95282e-09
3.84098e-09 0.0139361 2.01253e-09
3.96391e-09 0.0139361 1.71165e-09
4.23211e-09 0.0139361 1.7584e-09
4.37254e-09 0.0139361 2.00053e-09
3.64176e-09 0.0139361 2.00055e-09
3.80815e-09 0.0139361 1.8313e-09
4.09532e-09 0.0139361 1.77079e-09
4.15363e-09 0.0139361 1.89377e-09
4.61049e-09 0.0139361 1.89631e-09
3.47645e-09 0.0139361 1.90085e-09
3.83653e-09 0.0139361 2.02978e-09
4.01968e-09 0.0139361 2.05371e-09
4.30816e-09 0.0139361 2.00856e-09
4.51671e-09 0.0139361 1.9393e-09
3.68345e-09 0.0139361 1.97736e-09
3.82518e-09 0.0139361 1.91473e-09
4.12697e-09 0.0139361 1.99745e-09
4.22661e-09 0.0139361 2.08508e-09
4.53153e-09 0.0139361 2.18339e-09
3.54285e-09 0.0139361 2.06424e-09
3.97796e-09 0.0139361 1.98233e-09
4.16368e-09 0.0139361 2.1156e-09
4.04947e-09 0.0139361 2.25639e-09
4.44961e-09 0.0139361 2.25465e-09
3.88471e-09 0.0152957 1.25886e-09
3.92493e-09 0.0152957 1.29414e-09
4.2663e-09 0.0152957 1.24743e-09
4.49612e-09 0.0152957 1.43821e-09
4.45811e-09 0.0152957 1.43072e-09
3.65783e-09 0.0152957 1.35105e-09
4.02526e-09 0.0152957 1.32082e-09
4.23345e-09 0.0152957 1.19268e-09
4.54812e-09 0.0152957 1.34063e-09
4.74305e-09 0.0152957 1.30243e-09
3.50641e-09 0.0152957 1.32506e-09
4.07347e-09 0.0152957 1.36872e-09
4.24991e-09 0.0152957 1.26162e-09
4.43563e-09 0.0152957 1.34924e-09
5.09211e-09 0.0152957 1.50638e-09
3.68614e-09 0.0152957 1.30419e-09
4.00161e-09 0.0152957 1.28629e-09
4.21888e-09 0.0152957 1.38863e-09
4.56568e-09 0.0152957 1.4345e-09
4.66733e-09 0.0152957 1.56499e-09
3.73953e-09 0.0152957 1.22511e-09
3.92019e-09 0.0152957 1.22769e-09
4.25264e-09 0.0152957 1.17236e-09
4.73924e-09 0.0152957 1.61449e-09
4.25214e-09 0.0152957 1.6965e-09
3.99646e-09 0.0166455 3.13596e-10
4.26766e-09 0.0166455 4.51776e-10
4.34944e-09 0.0166455 8.15216e-10
4.72216e-09 0.0166455 2.33364e-10
4.90996e-09 0.0166455 4.23145e-10
4.07893e-09 0.0166455 4.70529e-10
4.21834e-09 0.0166455 4.56485e-10
4.41807e-09 0.0166455 4.46082e-10
4.6155e-09 0.0166455 3.91849e-10
4.9593e-09 0.0166455 4.25032e-10
3.95412e-09 0.0166455 4.54493e-10
4.10511e-09 0.0166455 2.92138e-10
4.53406e-09 0.0166455 3.1871e-10
4.62941e-09 0.0166455 4.7938e-10
4.80363e-09 0.0166455 5.23843e-10
3.94271e-09 0.0166455 3.75762e-10
4.03538e-09 0.0166455 2.88574e-10
4.59451e-09 0.0166455 4.34954e-10
4.70568e-09 0.0166455 4.52714e-10
4.80809e-09 0.0166455 4.28433e-10
3.83854e-09 0.0166455 2.22167e-10
4.00011e-09 0.0166455 3.80446e-10
4.67934e-09 0.0166455 2.89601e-10
4.77034e-09 0.0166455 5.18912e-10
4.80401e-09 0.0166455 3.75593e-10
4.17074e-09 0.017985 -7.6521e-10
4.52074e-09 0.017985 -1.10018e-09
4.44591e-09 0.017985 -9.48981e-10
4.64332e-09 0.017985 -1.10555e-09
5.57309e-09 0.017985 -9.47281e-10
4.06651e-09 0.017985 -9.40391e-10
4.25429e-09 0.017985 -1.01219e-09
4.52827e-09 0.017985 -1.01521e-09
4.84126e-09 0.017985 -8.70163e-10
5.04419e-09 0.017985 -8.27649e-10
4.05064e-09 0.017985 -1.00368e-09
4.21869e-09 0.017985 -8.04314e-10
4.64824e-09 0.017985 -9.82114e-10
4.95521e-09 0.017985 -7.71982e-10
4.93927e-09 0.017985 -8.32796e-10
3.83365e-09 0.017985 -7.0913e-10
4.27083e-09 0.017985 -8.10015e-10
4.71768e-09 0.017985 -7.20766e-10
4.8644e-09 0.017985 -7.34975e-10
5.12184e-09 0.017985 -9.08586e-10
3.69329e-09 0.017985 -7.08763e-10
4.16907e-09 0.017985 -7.82701e-10
4.65539e-09 0.017985 -6.7525e-10
4.98007e-09 0.017985 -6.23936e-10
5.29397e-09 0.017985 -9.41196e-10
4.23905e-09 0.0193136 -2.63333e-09
4.53994e-09 0.0193136 -2.76266e-09
4.58809e-09 0.0193136 -2.79023e-09
5.06376e-09 0.0193136 -2.76947e-09
5.28375e-09 0.0193136 -2.53065e-09
4.32982e-09 0.0193136 -2.62569e-09
4.43825e-09 0.0193136 -2.6471e-09
4.60393e-09 0.0193136 -2.70951e-09
4.90331e-09 0.0193136 -2.56222e-09
5.04358e-09 0.0193136 -2.51728e-09
3.89633e-09 0.0193136 -2.4012e-09
4.3372e-09 0.0193136 -2.43688e-09
4.82273e-09 0.0193136 -2.22081e-09
4.92559e-09 0.0193136 -2.60779e-09
5.18855e-09 0.0193136 -2.5235e-09
3.54554e-09 0.0193136 -2.16082e-09
4.37751e-09 0.0193136 -2.1529e-09
4.90047e-09 0.0193136 -2.21179e-09
4.93047e-09 0.0193136 -2.46263e-09
5.30074e-09 0.0193136 -2.45572e-09
3.45917e-09 0.0193136 -1.78172e-09
4.46589e-09 0.0193136 -1.96993e-09
4.69987e-09 0.0193136 -2.28307e-09
4.89802e-09 0.0193136 -2.08603e-09
5.50556e-09 0.0193136 -2.11465e-09
4.03992e-09 0.0206311 -4.45511e-09
4.64022e-09 0.0206311 -4.66654e-09
4.74603e-09 0.0206311 -4.84657e-09
5.04954e-09 0.0206311 -4.85348e-09
5.40016e-09 0.0206311 -4.77879e-09
4.20653e-09 0.0206311 -4.54507e-09
4.39509e-09 0.0206311 -4.48177e-09
4.78826e-09 0.0206311 -4.62039e-09
4.96311e-09 0.0206311 -4.66972e-09
5.33288e-09 0.0206311 -4.77178e-09
4.19163e-09 0.0206311 -4.20128e-09
4.53227e-09 0.0206311 -4.45687e-09
4.84501e-09 0.0206311 -4.48073e-09
5.00102e-09 0.0206311 -4.60078e-09
5.1733e-09 0.0206311 -4.83225e-09
4.50406e-09 0.0206311 -4.20078e-09
4.25636e-09 0.0206311 -4.00824e-09
4.7039e-09 0.0206311 -4.2539e-09
5.07907e-09 0.0206311 -4.43095e-09
5.66459e-09 0.0206311 -4.418e-09
4.40484e-09 0.0206311 -4.07087e-09
4.34362e-09 0.0206311 -4.0717e-09
4.69633e-09 0.0206311 -4.02466e-09
4.83699e-09 0.0206311 -4.52299e-09
5.638e-09 0.0206311 -4.21973e-09
3.53002e-09 0.021937 -6.70392e-09
4.38893e-09 0.0219369 -6.69388e-09
4.76557e-09 0.0219369 -6.76128e-09
5.12566e-09 0.0219369 -7.32988e-09
5.95927e-09 0.0219369 -6.91558e-09
3.7012e-09 0.0219369 -6.7361e-09
4.51475e-09 0.0219369 -6.6813e-09
4.92663e-09 0.0219369 -6.84768e-09
5.13083e-09 0.0219369 -7.13513e-09
5.61237e-09 0.0219369 -6.92775e-09
4.36779e-09 0.0219369 -6.54028e-09
4.505e-09 0.021937 -6.4932e-09
4.93551e-09 0.0219369 -6.85806e-09
5.0573e-09 0.0219369 -6.83329e-09
5.42444e-09 0.0219369 -6.90998e-09
4.47515e-09 0.021937 -6.4756e-09
4.38358e-09 0.021937 -6.39468e-09
4.8998e-09 0.0219369 -6.29149e-09
4.99356e-09 0.021937 -6.54234e-09
5.774e-09 0.0219369 -6.83267e-09
4.07964e-09 0.021937 -6.27669e-09
4.70508e-09 0.021937 -6.18187e-09
4.52601e-09 0.021937 -6.45456e-09
5.26054e-09 0.0219369 -6.46411e-09
5.51873e-09 0.021937 -6.57867e-09
3.78097e-09 0.0232309 -8.54002e-09
4.22989e-09 0.0232309 -8.80572e-09
5.25754e-09 0.0232309 -8.56639e-09
5.01126e-09 0.0232309 -9.04487e-09
5.722e-09 0.0232309 -9.37772e-09
4.05162e-09 0.0232309 -8.76575e-09
4.36146e-09 0.0232309 -8.89169e-09
4.84508e-09 0.0232309 -8.90436e-09
5.05698e-09 0.0232309 -9.09145e-09
5.75387e-09 0.0232309 -9.17567e-09
4.31029e-09 0.0232309 -8.94398e-09
4.54592e-09 0.0232309 -9.08396e-09
4.80799e-09 0.0232309 -9.11162e-09
5.20104e-09 0.0232309 -9.14723e-09
5.41513e-09 0.0232309 -8.98931e-09
4.61081e-09 0.0232309 -8.94143e-09
4.60677e-09 0.0232309 -8.92393e-09
4.8558e-09 0.0232309 -8.90299e-09
5.19544e-09 0.0232309 -9.22079e-09
5.54276e-09 0.0232309 -8.71545e-09
4.73356e-09 0.0232309 -8.71182e-09
4.54084e-09 0.0232309 -8.81204e-09
4.86699e-09 0.0232309 -8.94562e-09
5.24976e-09 0.0232309 -8.64712e-09
5.06649e-09 0.0232309 -9.19585e-09
3.54037e-09 0.0245123 -1.15031e-08
4.41047e-09 0.0245123 -1.09824e-08
4.9275e-09 0.0245123 -1.11169e-08
5.1807e-09 0.0245123 -1.14842e-08
6.14823e-09 0.0245123 -1.14439e-08
4.08779e-09 0.0245123 -1.12235e-08
4.26289e-09 0.0245123 -1.15706e-08
4.86492e-09 0.0245123 -1.13102e-08
5.14604e-09 0.0245123 -1.13771e-08
6.27459e-09 0.0245123 -1.17438e-08
4.12816e-09 0.0245123 -1.13704e-08
4.39733e-09 0.0245123 -1.15876e-08
4.83591e-09 0.0245123 -1.15447e-08
5.36224e-09 0.0245123 -1.14175e-08
5.92149e-09 0.0245123 -1.13933e-08
4.63284e-09 0.0245123 -1.1377e-08
4.52459e-09 0.0245123 -1.14929e-08
4.88431e-09 0.0245123 -1.14471e-08
5.37402e-09 0.0245123 -1.14468e-08
5.74572e-09 0.0245123 -1.12747e-08
4.57574e-09 0.0245123 -1.13392e-08
4.87653e-09 0.0245123 -1.13031e-08
4.92048e-09 0.0245123 -1.14983e-08
5.3882e-09 0.0245123 -1.14076e-08
6.09316e-09 0.0245123 -1.15418e-08
3.62976e-09 0.0257808 -1.41721e-08
4.48185e-09 0.0257808 -1.38504e-08
4.70716e-09 0.0257808 -1.42869e-08
5.17986e-09 0.0257808 -1.39989e-08
6.1042e-09 0.0257809 -1.41573e-08
3.87448e-09 0.0257808 -1.37422e-08
4.44642e-09 0.0257808 -1.37509e-08
5.10354e-09 0.0257808 -1.39086e-08
5.32522e-09 0.0257808 -1.38807e-08
6.01692e-09 0.0257809 -1.40063e-08
4.06627e-09 0.0257808 -1.3822e-08
4.488e-09 0.0257808 -1.37961e-08
4.91932e-09 0.0257808 -1.38387e-08
5.2711e-09 0.0257809 -1.40941e-08
6.42564e-09 0.0257808 -1.4005e-08
4.51724e-09 0.0257808 -1.38905e-08
4.58866e-09 0.0257808 -1.39398e-08
4.91403e-09 0.0257808 -1.35496e-08
5.2791e-09 0.0257808 -1.38071e-08
6.09021e-09 0.0257809 -1.38375e-08
4.04647e-09 0.0257808 -1.37546e-08
4.9366e-09 0.0257808 -1.40752e-08
4.88386e-09 0.0257808 -1.42551e-08
5.30124e-09 0.0257808 -1.37453e-08
6.23439e-09 0.0257808 -1.36588e-08
3.97604e-09 0.0270364 -1.59576e-08
4.56874e-09 0.0270364 -1.58389e-08
5.33454e-09 0.0270364 -1.61887e-08
5.13141e-09 0.0270364 -1.62333e-08
6.42394e-09 0.0270364 -1.62984e-08
4.1299e-09 0.0270364 -1.60139e-08
4.51949e-09 0.0270364 -1.61158e-08
4.95889e-09 0.0270364 -1.62533e-08
5.38509e-09 0.0270364 -1.62713e-08
6.44076e-09 0.0270364 -1.62756e-08
4.5357e-09 0.0270364 -1.60542e-08
4.52462e-09 0.0270364 -1.59699e-08
4.94804e-09 0.0270364 -1.60715e-08
5.31515e-09 0.0270364 -1.62938e-08
5.80957e-09 0.0270364 -1.64214e-08
4.41277e-09 0.0270364 -1.60925e-08
4.831e-09 0.0270364 -1.62937e-08
4.83036e-09 0.0270364 -1.57804e-08
5.19376e-09 0.0270364 -1.59921e-08
5.7807e-09 0.0270364 -1.60409e-08
4.69581e-09 0.0270364 -1.65331e-08
4.30999e-09 0.0270364 -1.63438e-08
5.06049e-09 0.0270364 -1.61583e-08
5.22416e-09 0.0270364 -1.61629e-08
5.61169e-09 0.0270364 -1.60359e-08
4.11056e-09 0.0282793 -1.81075e-08
4.3545e-09 0.0282793 -1.82447e-08
5.26444e-09 0.0282793 -1.81639e-08
5.39531e-09 0.0282793 -1.83643e-08
6.6394e-09 0.0282794 -1.78288e-08
4.15264e-09 0.0282793 -1.79772e-08
4.66645e-09 0.0282793 -1.8143e-08
5.06957e-09 0.0282793 -1.8255e-08
5.40314e-09 0.0282793 -1.82392e-08
6.33404e-09 0.0282793 -1.80451e-08
4.441e-09 0.0282793 -1.82039e-08
4.81834e-09 0.0282793 -1.798e-08
4.8952e-09 0.0282793 -1.82244e-08
5.31961e-09 0.0282793 -1.81186e-08
6.26351e-09 0.0282793 -1.84127e-08
4.5925e-09 0.0282793 -1.80869e-08
4.69953e-09 0.0282793 -1.78985e-08
5.06471e-09 0.0282794 -1.80795e-08
5.01899e-09 0.0282793 -1.81359e-08
5.72325e-09 0.0282793 -1.81206e-08
4.10822e-09 0.0282793 -1.7754e-08
4.68217e-09 0.0282793 -1.80961e-08
4.95471e-09 0.0282794 -1.74503e-08
5.22421e-09 0.0282793 -1.77546e-08
5.24298e-09 0.0282793 -1.79973e-08
4.5377e-09 0.0295102 -2.00039e-08
4.88543e-09 0.0295102 -2.03638e-08
5.21737e-09 0.0295102 -2.06858e-08
5.49519e-09 0.0295102 -2.02228e-08
5.9581e-09 0.0295102 -1.94541e-08
4.2681e-09 0.0295102 -1.99767e-08
4.86364e-09 0.0295102 -2.01178e-08
5.0893e-09 0.0295102 -2.01798e-08
5.55635e-09 0.0295102 -1.98235e-08
5.855e-09 0.0295102 -1.98668e-08
4.50369e-09 0.0295102 -1.97983e-08
4.95985e-09 0.0295102 -1.98278e-08
5.11996e-09 0.0295102 -1.9766e-08
5.11257e-09 0.0295102 -1.9908e-08
6.4997e-09 0.0295102 -1.96308e-08
4.74591e-09 0.0295102 -1.98432e-08
5.09396e-09 0.0295102 -1.96451e-08
4.89833e-09 0.0295102 -1.94019e-08
5.02811e-09 0.0295102 -1.95177e-08
5.59265e-09 0.0295102 -1.9618e-08
5.11925e-09 0.0295102 -1.95842e-08
4.75796e-09 0.0295102 -1.9123e-08
5.07855e-09 0.0295102 -1.93409e-08
4.91328e-09 0.0295102 -1.90523e-08
5.09312e-09 0.0295102 -1.96673e-08
5.11523e-09 0.0307295 -2.14414e-08
4.8528e-09 0.0307294 -2.17266e-08
5.10641e-09 0.0307295 -2.13436e-08
5.85832e-09 0.0307294 -2.14116e-08
5.68197e-09 0.0307294 -2.173e-08
4.8414e-09 0.0307295 -2.13656e-08
4.91426e-09 0.0307294 -2.14042e-08
5.37681e-09 0.0307294 -2.11915e-08
5.33978e-09 0.0307294 -2.12478e-08
6.16434e-09 0.0307295 -2.10717e-08
4.88928e-09 0.0307295 -2.12181e-08
5.19028e-09 0.0307294 -2.11157e-08
5.19462e-09 0.0307294 -2.11084e-08
5.05069e-09 0.0307294 -2.09213e-08
5.61091e-09 0.0307294 -2.09781e-08
4.83924e-09 0.0307295 -2.1106e-08
5.10204e-09 0.0307295 -2.10526e-08
5.11529e-09 0.0307294 -2.0998e-08
4.80695e-09 0.0307294 -2.111e-08
5.27867e-09 0.0307294 -2.07777e-08
5.05238e-09 0.0307295 -2.10915e-08
5.3264e-09 0.0307295 -2.11027e-08
5.28497e-09 0.0307294 -2.0856e-08
4.62963e-09 0.0307295 -2.08016e-08