<?xml version="1.0"?>
<VTKFile type="UnstructuredGrid" version="0.1" byte_order="LittleEndian">
<UnstructuredGrid>
<Piece NumberOfPoints="1025" NumberOfCells="640">
<Points>
<DataArray type="Float32" NumberOfComponents="3" format="ascii">
0 0 0
0.025 0 0
0.05 0 0
0.075 0 0
0.1 0 0
0 0.025 0
0.025 0.025 0
0.05 0.025 0
0.075 0.025 0
0.1 0.025 0
0 0.05 0
0.025 0.05 0
0.05 0.05 0
0.075 0.05 0
0.1 0.05 0
0 0.075 0
0.025 0.075 0
0.05 0.075 0
0.075 0.075 0
0.1 0.075 0
0 0.1 0
0.025 0.1 0
0.05 0.1 0
0.075 0.1 0
0.1 0.1 0
0 0 0.025
0.025 0 0.025
0.05 0 0.025
0.075 0 0.025
0.1 0 0.025
0 0.025 0.025
0.025 0.025 0.025
0.05 0.025 0.025
0.075 0.025 0.025
0.1 0.025 0.025
0 0.05 0.025
0.025 0.05 0.025
0.05 0.05 0.025
0.075 0.05 0.025
0.1 0.05 0.025
0 0.075 0.025
0.025 0.075 0.025
0.05 0.075 0.025
0.075 0.075 0.025
0.1 0.075 0.025
0 0.1 0.025
0.025 0.1 0.025
0.05 0.1 0.025
0.075 0.1 0.025
0.1 0.1 0.025
0 0 0.05
0.025 0 0.05
0.05 0 0.05
0.075 0 0.05
0.1 0 0.05
0 0.025 0.05
0.025 0.025 0.05
0.05 0.025 0.05
0.075 0.025 0.05
0.1 0.025 0.05
0 0.05 0.05
0.025 0.05 0.05
0.05 0.05 0.05
0.075 0.05 0.05
0.1 0.05 0.05
0 0.075 0.05
0.025 0.075 0.05
0.05 0.075 0.05
0.075 0.075 0.05
0.1 0.075 0.05
0 0.1 0.05
0.025 0.1 0.05
0.05 0.1 0.05
0.075 0.1 0.05
0.1 0.1 0.05
0 0 0.075
0.025 0 0.075
0.05 0 0.075
0.075 0 0.075
0.1 0 0.075
0 0.025 0.075
0.025 0.025 0.075
0.05 0.025 0.075
0.075 0.025 0.075
0.1 0.025 0.075
0 0.05 0.075
0.025 0.05 0.075
0.05 0.05 0.075
0.075 0.05 0.075
0.1 0.05 0.075
0 0.075 0.075
0.025 0.075 0.075
0.05 0.075 0.075
0.075 0.075 0.075
0.1 0.075 0.075
0 0.1 0.075
0.025 0.1 0.075
0.05 0.1 0.075
0.075 0.1 0.075
0.1 0.1 0.075
0 0 0.1
0.025 0 0.1
0.05 0 0.1
0.075 0 0.1
0.1 0 0.1
0 0.025 0.1
0.025 0.025 0.1
0.05 0.025 0.1
0.075 0.025 0.1
0.1 0.025 0.1
0 0.05 0.1
0.025 0.05 0.1
0.05 0.05 0.1
0.075 0.05 0.1
0.1 0.05 0.1
0 0.075 0.1
0.025 0.075 0.1
0.05 0.075 0.1
0.075 0.075 0.1
0.1 0.075 0.1
0 0.1 0.1
0.025 0.1 0.1
0.05 0.1 0.1
0.075 0.1 0.1
0.1 0.1 0.1
0 0 0.125
0.025 0 0.125
0.05 0 0.125
0.075 0 0.125
0.1 0 0.125
0 0.025 0.125
0.025 0.025 0.125
0.05 0.025 0.125
0.075 0.025 0.125
0.1 0.025 0.125
0 0.05 0.125
0.025 0.05 0.125
0.05 0.05 0.125
0.075 0.05 0.125
0.1 0.05 0.125
0 0.075 0.125
0.025 0.075 0.125
0.05 0.075 0.125
0.075 0.075 0.125
0.1 0.075 0.125
0 0.1 0.125
0.025 0.1 0.125
0.05 0.1 0.125
0.075 0.1 0.125
0.1 0.1 0.125
0 0 0.15
0.025 0 0.15
0.05 0 0.15
0.075 0 0.15
0.1 0 0.15
0 0.025 0.15
0.025 0.025 0.15
0.05 0.025 0.15
0.075 0.025 0.15
0.1 0.025 0.15
0 0.05 0.15
0.025 0.05 0.15
0.05 0.05 0.15
0.075 0.05 0.15
0.1 0.05 0.15
0 0.075 0.15
0.025 0.075 0.15
0.05 0.075 0.15
0.075 0.075 0.15
0.1 0.075 0.15
0 0.1 0.15
0.025 0.1 0.15
0.05 0.1 0.15
0.075 0.1 0.15
0.1 0.1 0.15
0 0 0.175
0.025 0 0.175
0.05 0 0.175
0.075 0 0.175
0.1 0 0.175
0 0.025 0.175
0.025 0.025 0.175
0.05 0.025 0.175
0.075 0.025 0.175
0.1 0.025 0.175
0 0.05 0.175
0.025 0.05 0.175
0.05 0.05 0.175
0.075 0.05 0.175
0.1 0.05 0.175
0 0.075 0.175
0.025 0.075 0.175
0.05 0.075 0.175
0.075 0.075 0.175
0.1 0.075 0.175
0 0.1 0.175
0.025 0.1 0.175
0.05 0.1 0.175
0.075 0.1 0.175
0.1 0.1 0.175
0 0 0.2
0.025 0 0.2
0.05 0 0.2
0.075 0 0.2
0.1 0 0.2
0 0.025 0.2
0.025 0.025 0.2
0.05 0.025 0.2
0.075 0.025 0.2
0.1 0.025 0.2
0 0.05 0.2
0.025 0.05 0.2
0.05 0.05 0.2
0.075 0.05 0.2
0.1 0.05 0.2
0 0.075 0.2
0.025 0.075 0.2
0.05 0.075 0.2
0.075 0.075 0.2
0.1 0.075 0.2
0 0.1 0.2
0.025 0.1 0.2
0.05 0.1 0.2
0.075 0.1 0.2
0.1 0.1 0.2
0 0 0.225
0.025 0 0.225
0.05 0 0.225
0.075 0 0.225
0.1 0 0.225
0 0.025 0.225
0.025 0.025 0.225
0.05 0.025 0.225
0.075 0.025 0.225
0.1 0.025 0.225
0 0.05 0.225
0.025 0.05 0.225
0.05 0.05 0.225
0.075 0.05 0.225
0.1 0.05 0.225
0 0.075 0.225
0.025 0.075 0.225
0.05 0.075 0.225
0.075 0.075 0.225
0.1 0.075 0.225
0 0.1 0.225
0.025 0.1 0.225
0.05 0.1 0.225
0.075 0.1 0.225
0.1 0.1 0.225
0 0 0.25
0.025 0 0.25
0.05 0 0.25
0.075 0 0.25
0.1 0 0.25
0 0.025 0.25
0.025 0.025 0.25
0.05 0.025 0.25
0.075 0.025 0.25
0.1 0.025 0.25
0 0.05 0.25
0.025 0.05 0.25
0.05 0.05 0.25
0.075 0.05 0.25
0.1 0.05 0.25
0 0.075 0.25
0.025 0.075 0.25
0.05 0.075 0.25
0.075 0.075 0.25
0.1 0.075 0.25
0 0.1 0.25
0.025 0.1 0.25
0.05 0.1 0.25
0.075 0.1 0.25
0.1 0.1 0.25
0 0 0.275
0.025 0 0.275
0.05 0 0.275
0.075 0 0.275
0.1 0 0.275
0 0.025 0.275
0.025 0.025 0.275
0.05 0.025 0.275
0.075 0.025 0.275
0.1 0.025 0.275
0 0.05 0.275
0.025 0.05 0.275
0.05 0.05 0.275
0.075 0.05 0.275
0.1 0.05 0.275
0 0.075 0.275
0.025 0.075 0.275
0.05 0.075 0.275
0.075 0.075 0.275
0.1 0.075 0.275
0 0.1 0.275
0.025 0.1 0.275
0.05 0.1 0.275
0.075 0.1 0.275
0.1 0.1 0.275
0 0 0.3
0.025 0 0.3
0.05 0 0.3
0.075 0 0.3
0.1 0 0.3
0 0.025 0.3
0.025 0.025 0.3
0.05 0.025 0.3
0.075 0.025 0.3
0.1 0.025 0.3
0 0.05 0.3
0.025 0.05 0.3
0.05 0.05 0.3
0.075 0.05 0.3
0.1 0.05 0.3
0 0.075 0.3
0.025 0.075 0.3
0.05 0.075 0.3
0.075 0.075 0.3
0.1 0.075 0.3
0 0.1 0.3
0.025 0.1 0.3
0.05 0.1 0.3
0.075 0.1 0.3
0.1 0.1 0.3
0 0 0.325
0.025 0 0.325
0.05 0 0.325
0.075 0 0.325
0.1 0 0.325
0 0.025 0.325
0.025 0.025 0.325
0.05 0.025 0.325
0.075 0.025 0.325
0.1 0.025 0.325
0 0.05 0.325
0.025 0.05 0.325
0.05 0.05 0.325
0.075 0.05 0.325
0.1 0.05 0.325
0 0.075 0.325
0.025 0.075 0.325
0.05 0.075 0.325
0.075 0.075 0.325
0.1 0.075 0.325
0 0.1 0.325
0.025 0.1 0.325
0.05 0.1 0.325
0.075 0.1 0.325
0.1 0.1 0.325
0 0 0.35
0.025 0 0.35
0.05 0 0.35
0.075 0 0.35
0.1 0 0.35
0 0.025 0.35
0.025 0.025 0.35
0.05 0.025 0.35
0.075 0.025 0.35
0.1 0.025 0.35
0 0.05 0.35
0.025 0.05 0.35
0.05 0.05 0.35
0.075 0.05 0.35
0.1 0.05 0.35
0 0.075 0.35
0.025 0.075 0.35
0.05 0.075 0.35
0.075 0.075 0.35
0.1 0.075 0.35
0 0.1 0.35
0.025 0.1 0.35
0.05 0.1 0.35
0.075 0.1 0.35
0.1 0.1 0.35
0 0 0.375
0.025 0 0.375
0.05 0 0.375
0.075 0 0.375
0.1 0 0.375
0 0.025 0.375
0.025 0.025 0.375
0.05 0.025 0.375
0.075 0.025 0.375
0.1 0.025 0.375
0 0.05 0.375
0.025 0.05 0.375
0.05 0.05 0.375
0.075 0.05 0.375
0.1 0.05 0.375
0 0.075 0.375
0.025 0.075 0.375
0.05 0.075 0.375
0.075 0.075 0.375
0.1 0.075 0.375
0 0.1 0.375
0.025 0.1 0.375
0.05 0.1 0.375
0.075 0.1 0.375
0.1 0.1 0.375
0 0 0.4
0.025 0 0.4
0.05 0 0.4
0.075 0 0.4
0.1 0 0.4
0 0.025 0.4
0.025 0.025 0.4
0.05 0.025 0.4
0.075 0.025 0.4
0.1 0.025 0.4
0 0.05 0.4
0.025 0.05 0.4
0.05 0.05 0.4
0.075 0.05 0.4
0.1 0.05 0.4
0 0.075 0.4
0.025 0.075 0.4
0.05 0.075 0.4
0.075 0.075 0.4
0.1 0.075 0.4
0 0.1 0.4
0.025 0.1 0.4
0.05 0.1 0.4
0.075 0.1 0.4
0.1 0.1 0.4
0 0 0.425
0.025 0 0.425
0.05 0 0.425
0.075 0 0.425
0.1 0 0.425
0 0.025 0.425
0.025 0.025 0.425
0.05 0.025 0.425
0.075 0.025 0.425
0.1 0.025 0.425
0 0.05 0.425
0.025 0.05 0.425
0.05 0.05 0.425
0.075 0.05 0.425
0.1 0.05 0.425
0 0.075 0.425
0.025 0.075 0.425
0.05 0.075 0.425
0.075 0.075 0.425
0.1 0.075 0.425
0 0.1 0.425
0.025 0.1 0.425
0.05 0.1 0.425
0.075 0.1 0.425
0.1 0.1 0.425
0 0 0.45
0.025 0 0.45
0.05 0 0.45
0.075 0 0.45
0.1 0 0.45
0 0.025 0.45
0.025 0.025 0.45
0.05 0.025 0.45
0.075 0.025 0.45
0.1 0.025 0.45
0 0.05 0.45
0.025 0.05 0.45
0.05 0.05 0.45
0.075 0.05 0.45
0.1 0.05 0.45
0 0.075 0.45
0.025 0.075 0.45
0.05 0.075 0.45
0.075 0.075 0.45
0.1 0.075 0.45
0 0.1 0.45
0.025 0.1 0.45
0.05 0.1 0.45
0.075 0.1 0.45
0.1 0.1 0.45
0 0 0.475
0.025 0 0.475
0.05 0 0.475
0.075 0 0.475
0.1 0 0.475
0 0.025 0.475
0.025 0.025 0.475
0.05 0.025 0.475
0.075 0.025 0.475
0.1 0.025 0.475
0 0.05 0.475
0.025 0.05 0.475
0.05 0.05 0.475
0.075 0.05 0.475
0.1 0.05 0.475
0 0.075 0.475
0.025 0.075 0.475
0.05 0.075 0.475
0.075 0.075 0.475
0.1 0.075 0.475
0 0.1 0.475
0.025 0.1 0.475
0.05 0.1 0.475
0.075 0.1 0.475
0.1 0.1 0.475
0 0 0.5
0.025 0 0.5
0.05 0 0.5
0.075 0 0.5
0.1 0 0.5
0 0.025 0.5
0.025 0.025 0.5
0.05 0.025 0.5
0.075 0.025 0.5
0.1 0.025 0.5
0 0.05 0.5
0.025 0.05 0.5
0.05 0.05 0.5
0.075 0.05 0.5
0.1 0.05 0.5
0 0.075 0.5
0.025 0.075 0.5
0.05 0.075 0.5
0.075 0.075 0.5
0.1 0.075 0.5
0 0.1 0.5
0.025 0.1 0.5
0.05 0.1 0.5
0.075 0.1 0.5
0.1 0.1 0.5
0 0 0.525
0.025 0 0.525
0.05 0 0.525
0.075 0 0.525
0.1 0 0.525
0 0.025 0.525
0.025 0.025 0.525
0.05 0.025 0.525
0.075 0.025 0.525
0.1 0.025 0.525
0 0.05 0.525
0.025 0.05 0.525
0.05 0.05 0.525
0.075 0.05 0.525
0.1 0.05 0.525
0 0.075 0.525
0.025 0.075 0.525
0.05 0.075 0.525
0.075 0.075 0.525
0.1 0.075 0.525
0 0.1 0.525
0.025 0.1 0.525
0.05 0.1 0.525
0.075 0.1 0.525
0.1 0.1 0.525
0 0 0.55
0.025 0 0.55
0.05 0 0.55
0.075 0 0.55
0.1 0 0.55
0 0.025 0.55
0.025 0.025 0.55
0.05 0.025 0.55
0.075 0.025 0.55
0.1 0.025 0.55
0 0.05 0.55
0.025 0.05 0.55
0.05 0.05 0.55
0.075 0.05 0.55
0.1 0.05 0.55
0 0.075 0.55
0.025 0.075 0.55
0.05 0.075 0.55
0.075 0.075 0.55
0.1 0.075 0.55
0 0.1 0.55
0.025 0.1 0.55
0.05 0.1 0.55
0.075 0.1 0.55
0.1 0.1 0.55
0 0 0.575
0.025 0 0.575
0.05 0 0.575
0.075 0 0.575
0.1 0 0.575
0 0.025 0.575
0.025 0.025 0.575
0.05 0.025 0.575
0.075 0.025 0.575
0.1 0.025 0.575
0 0.05 0.575
0.025 0.05 0.575
0.05 0.05 0.575
0.075 0.05 0.575
0.1 0.05 0.575
0 0.075 0.575
0.025 0.075 0.575
0.05 0.075 0.575
0.075 0.075 0.575
0.1 0.075 0.575
0 0.1 0.575
0.025 0.1 0.575
0.05 0.1 0.575
0.075 0.1 0.575
0.1 0.1 0.575
0 0 0.6
0.025 0 0.6
0.05 0 0.6
0.075 0 0.6
0.1 0 0.6
0 0.025 0.6
0.025 0.025 0.6
0.05 0.025 0.6
0.075 0.025 0.6
0.1 0.025 0.6
0 0.05 0.6
0.025 0.05 0.6
0.05 0.05 0.6
0.075 0.05 0.6
0.1 0.05 0.6
0 0.075 0.6
0.025 0.075 0.6
0.05 0.075 0.6
0.075 0.075 0.6
0.1 0.075 0.6
0 0.1 0.6
0.025 0.1 0.6
0.05 0.1 0.6
0.075 0.1 0.6
0.1 0.1 0.6
0 0 0.625
0.025 0 0.625
0.05 0 0.625
0.075 0 0.625
0.1 0 0.625
0 0.025 0.625
0.025 0.025 0.625
0.05 0.025 0.625
0.075 0.025 0.625
0.1 0.025 0.625
0 0.05 0.625
0.025 0.05 0.625
0.05 0.05 0.625
0.075 0.05 0.625
0.1 0.05 0.625
0 0.075 0.625
0.025 0.075 0.625
0.05 0.075 0.625
0.075 0.075 0.625
0.1 0.075 0.625
0 0.1 0.625
0.025 0.1 0.625
0.05 0.1 0.625
0.075 0.1 0.625
0.1 0.1 0.625
0 0 0.65
0.025 0 0.65
0.05 0 0.65
0.075 0 0.65
0.1 0 0.65
0 0.025 0.65
0.025 0.025 0.65
0.05 0.025 0.65
0.075 0.025 0.65
0.1 0.025 0.65
0 0.05 0.65
0.025 0.05 0.65
0.05 0.05 0.65
0.075 0.05 0.65
0.1 0.05 0.65
0 0.075 0.65
0.025 0.075 0.65
0.05 0.075 0.65
0.075 0.075 0.65
0.1 0.075 0.65
0 0.1 0.65
0.025 0.1 0.65
0.05 0.1 0.65
0.075 0.1 0.65
0.1 0.1 0.65
0 0 0.675
0.025 0 0.675
0.05 0 0.675
0.075 0 0.675
0.1 0 0.675
[...]
<PointData Vectors="Displacement">
<DataArray type="Float32" Name="Displacement" NumberOfComponents="3" format="ascii">
0 0 0
0 0 0
0 0 0
0 0 0
0 0 0
0 0 0
0 0 0
0 0 0
0 0 0
0 0 0
0 0 0
0 0 0
0 0 0
0 0 0
0 0 0
0 0 0
0 0 0
0 0 0
0 0 0
0 0 0
0 0 0
0 0 0
0 0 0
0 0 0
0 0 0
4.26264e-10 0.00102883 1.56007e-11
4.26319e-10 0.00102883 2.26257e-11
4.36414e-10 0.00102883 2.44666e-11
4.52052e-10 0.00102883 5.28552e-11
4.66464e-10 0.00102883 3.39397e-11
4.23735e-10 0.00102883 1.92011e-11
4.32609e-10 0.00102883 2.3744e-11
4.40578e-10 0.00102883 2.90796e-11
4.44502e-10 0.00102883 2.9876e-11
4.63341e-10 0.00102883 3.834e-11
4.20757e-10 0.00102883 1.75725e-11
4.20406e-10 0.00102883 2.27602e-11
4.37303e-10 0.00102883 2.647e-11
4.50218e-10 0.00102883 3.07439e-11
4.54236e-10 0.00102883 2.89572e-11
4.39938e-10 0.00102883 1.55291e-11
4.16976e-10 0.00102883 1.47201e-11
4.40473e-10 0.00102883 2.15379e-11
4.43327e-10 0.00102883 3.04197e-11
4.33604e-10 0.00102883 2.51336e-11
4.39424e-10 0.00102883 3.79154e-11
4.32867e-10 0.00102883 1.93158e-11
4.3807e-10 0.00102883 2.11509e-12
4.28759e-10 0.00102883 2.76729e-11
4.23358e-10 0.00102883 5.51705e-11
8.5107e-10 0.00206324 -2.32064e-11
8.57841e-10 0.00206324 1.24967e-11
9.09942e-10 0.00206324 5.30196e-11
9.04768e-10 0.00206324 3.52125e-11
9.74296e-10 0.00206324 3.04996e-11
8.44894e-10 0.00206324 2.84514e-11
8.82419e-10 0.00206324 2.46054e-11
8.8903e-10 0.00206324 4.65637e-11
9.25228e-10 0.00206324 2.83793e-11
9.61312e-10 0.00206323 3.05385e-11
8.30186e-10 0.00206324 1.39555e-13
8.68192e-10 0.00206324 1.92446e-11
8.82053e-10 0.00206324 -2.98561e-12
9.00504e-10 0.00206323 1.50431e-11
9.62499e-10 0.00206324 3.76018e-11
8.54337e-10 0.00206324 2.28937e-11
8.48603e-10 0.00206324 -3.65408e-11
9.03205e-10 0.00206324 -5.06073e-12
8.95153e-10 0.00206324 7.01336e-12
9.03749e-10 0.00206323 -5.93925e-12
8.59684e-10 0.00206324 -5.18703e-11
8.56454e-10 0.00206324 -2.72231e-11
8.81462e-10 0.00206323 1.19633e-11
9.18194e-10 0.00206324 -1.17035e-11
9.25469e-10 0.00206323 9.37625e-12
1.33791e-09 0.00310781 -4.7983e-11
1.38733e-09 0.00310781 -5.88934e-11
1.41689e-09 0.00310781 -2.37835e-11
1.37207e-09 0.00310781 -3.97906e-11
1.46626e-09 0.00310781 -4.40943e-11
1.29641e-09 0.00310781 -6.50814e-11
1.33092e-09 0.00310781 -6.28178e-11
1.37776e-09 0.00310781 -4.51847e-11
1.38996e-09 0.00310781 -3.14526e-11
1.48538e-09 0.00310781 -7.4251e-11
1.32418e-09 0.00310781 -4.96458e-11
1.30044e-09 0.00310781 -4.34279e-11
1.36288e-09 0.00310781 -6.43576e-11
1.4042e-09 0.00310781 -9.34564e-11
1.44637e-09 0.00310781 -7.32172e-11
1.27617e-09 0.00310781 -9.9128e-11
1.30698e-09 0.00310781 -9.15543e-11
1.36054e-09 0.00310781 -8.09899e-11
1.39256e-09 0.00310781 -1.08192e-10
1.44285e-09 0.00310781 -5.22526e-11
1.33691e-09 0.00310781 -1.2328e-10
1.34264e-09 0.00310781 -1.20349e-10
1.37377e-09 0.00310781 -1.4374e-10
1.38102e-09 0.00310781 -9.56133e-11
1.38298e-09 0.00310781 -1.17857e-10
1.73267e-09 0.00416536 -2.69585e-10
1.82371e-09 0.00416536 -2.83233e-10
1.90515e-09 0.00416536 -3.25739e-10
1.89024e-09 0.00416536 -2.89333e-10
1.97892e-09 0.00416536 -2.98779e-10
1.73179e-09 0.00416536 -2.46322e-10
1.7845e-09 0.00416536 -2.99241e-10
1.86386e-09 0.00416536 -2.66346e-10
1.87994e-09 0.00416536 -2.63384e-10
2.02551e-09 0.00416536 -2.72757e-10
1.71683e-09 0.00416536 -3.25222e-10
1.76307e-09 0.00416536 -2.69306e-10
1.84963e-09 0.00416536 -2.9521e-10
1.94566e-09 0.00416536 -2.73295e-10
2.07435e-09 0.00416535 -2.70376e-10
1.72924e-09 0.00416536 -2.8091e-10
1.76908e-09 0.00416536 -2.8435e-10
1.85199e-09 0.00416536 -2.66257e-10
1.94696e-09 0.00416535 -2.88771e-10
2.04009e-09 0.00416536 -2.92675e-10
1.70341e-09 0.00416536 -2.41992e-10
1.7703e-09 0.00416536 -2.58627e-10
1.8589e-09 0.00416535 -3.59582e-10
1.93942e-09 0.00416536 -2.96215e-10
1.99511e-09 0.00416535 -3.3065e-10
2.13723e-09 0.00523643 -6.05911e-10
2.28269e-09 0.00523643 -6.5971e-10
2.39303e-09 0.00523643 -6.92972e-10
2.46956e-09 0.00523643 -6.66889e-10
2.62292e-09 0.00523643 -6.42948e-10
2.1909e-09 0.00523643 -6.60555e-10
2.27691e-09 0.00523643 -6.09305e-10
2.43163e-09 0.00523643 -7.18056e-10
2.48428e-09 0.00523643 -6.82005e-10
2.56822e-09 0.00523643 -6.19853e-10
2.17726e-09 0.00523643 -7.08493e-10
2.28777e-09 0.00523643 -6.49393e-10
2.42376e-09 0.00523643 -6.1556e-10
2.52585e-09 0.00523643 -5.83455e-10
2.71441e-09 0.00523643 -6.09432e-10
2.15489e-09 0.00523643 -6.47883e-10
2.30746e-09 0.00523643 -5.84885e-10
2.42273e-09 0.00523643 -5.70306e-10
2.51265e-09 0.00523643 -5.88096e-10
2.67313e-09 0.00523643 -5.67521e-10
2.21016e-09 0.00523643 -5.6286e-10
2.35306e-09 0.00523643 -6.04566e-10
2.40984e-09 0.00523643 -5.45976e-10
2.52832e-09 0.00523643 -6.36354e-10
2.66727e-09 0.00523643 -5.64293e-10
2.76814e-09 0.00631929 -1.15278e-09
2.73426e-09 0.00631929 -1.04099e-09
3.07974e-09 0.00631929 -1.29021e-09
3.01911e-09 0.00631929 -1.23479e-09
3.28101e-09 0.00631929 -1.15199e-09
2.59022e-09 0.00631929 -1.16373e-09
2.80567e-09 0.00631929 -1.14826e-09
3.02084e-09 0.00631929 -1.16723e-09
3.13064e-09 0.00631929 -1.19289e-09
3.33045e-09 0.00631929 -1.16624e-09
2.63409e-09 0.00631929 -1.08776e-09
2.83841e-09 0.00631929 -1.12303e-09
2.9973e-09 0.00631929 -1.12815e-09
3.16458e-09 0.00631929 -1.16715e-09
3.29715e-09 0.00631929 -1.18059e-09
2.70407e-09 0.00631929 -1.11229e-09
2.85551e-09 0.00631929 -1.07304e-09
3.00342e-09 0.00631929 -1.05917e-09
3.13684e-09 0.00631929 -1.15283e-09
3.3333e-09 0.00631929 -1.08878e-09
2.71861e-09 0.00631929 -1.10605e-09
2.87247e-09 0.00631929 -1.05997e-09
3.02206e-09 0.00631929 -1.10117e-09
3.04385e-09 0.00631929 -9.5048e-10
3.4824e-09 0.00631929 -1.12032e-09
3.03013e-09 0.00741039 -1.76607e-09
3.38624e-09 0.00741039 -1.71038e-09
3.57613e-09 0.00741039 -1.71763e-09
3.85118e-09 0.00741039 -1.89555e-09
3.73275e-09 0.00741039 -1.87946e-09
3.07465e-09 0.00741039 -1.74853e-09
3.39679e-09 0.00741039 -1.76205e-09
3.58913e-09 0.00741039 -1.86676e-09
3.80987e-09 0.00741039 -1.76823e-09
3.91161e-09 0.00741039 -1.84539e-09
3.18739e-09 0.00741039 -1.64253e-09
3.36889e-09 0.00741039 -1.77613e-09
3.59694e-09 0.00741039 -1.64804e-09
3.75445e-09 0.00741039 -1.80526e-09
4.01293e-09 0.00741039 -1.80313e-09
3.23213e-09 0.00741039 -1.7003e-09
3.4409e-09 0.00741039 -1.66177e-09
3.54909e-09 0.00741039 -1.78982e-09
3.75903e-09 0.00741039 -1.7385e-09
3.91671e-09 0.00741039 -1.78267e-09
3.22023e-09 0.00741039 -1.73363e-09
3.46045e-09 0.00741039 -1.72317e-09
3.57211e-09 0.00741039 -1.6912e-09
3.78287e-09 0.00741039 -1.71513e-09
3.87576e-09 0.00741039 -1.84479e-09
3.7402e-09 0.0085052 -2.57038e-09
3.89374e-09 0.00850519 -2.48812e-09
4.23262e-09 0.00850519 -2.60948e-09
4.21913e-09 0.00850519 -2.61221e-09
4.70541e-09 0.00850519 -2.72575e-09
3.75477e-09 0.0085052 -2.46727e-09
4.00801e-09 0.00850519 -2.44771e-09
4.1969e-09 0.00850519 -2.52653e-09
4.28628e-09 0.00850519 -2.59122e-09
4.66358e-09 0.00850519 -2.58161e-09
3.65597e-09 0.00850519 -2.5143e-09
3.95259e-09 0.0085052 -2.43801e-09
4.23339e-09 0.00850519 -2.65738e-09
4.24194e-09 0.00850519 -2.5105e-09
4.61859e-09 0.00850519 -2.50022e-09
3.83276e-09 0.0085052 -2.37289e-09
3.95213e-09 0.00850519 -2.50547e-09
4.17924e-09 0.00850519 -2.44885e-09
4.26626e-09 0.00850519 -2.46711e-09
4.61243e-09 0.00850519 -2.46944e-09
3.91049e-09 0.0085052 -2.37913e-09
3.96139e-09 0.0085052 -2.43661e-09
4.12662e-09 0.00850519 -2.48378e-09
4.25993e-09 0.00850519 -2.46555e-09
4.33112e-09 0.00850519 -2.47653e-09
4.44111e-09 0.00959936 -3.4876e-09
4.66841e-09 0.00959936 -3.47079e-09
4.61887e-09 0.00959936 -3.43797e-09
4.81802e-09 0.00959936 -3.52603e-09
5.29278e-09 0.00959936 -3.55461e-09
4.42468e-09 0.00959936 -3.40784e-09
4.52427e-09 0.00959936 -3.42074e-09
4.65895e-09 0.00959936 -3.45886e-09
4.9243e-09 0.00959936 -3.55133e-09
5.1594e-09 0.00959936 -3.53858e-09
4.30531e-09 0.00959936 -3.32433e-09
4.50697e-09 0.00959936 -3.41864e-09
4.7488e-09 0.00959936 -3.39824e-09
4.88268e-09 0.00959936 -3.41907e-09
5.13299e-09 0.00959936 -3.28713e-09
4.36396e-09 0.00959936 -3.42886e-09
4.54745e-09 0.00959936 -3.28589e-09
4.72417e-09 0.00959936 -3.31387e-09
4.91899e-09 0.00959936 -3.22682e-09
5.0328e-09 0.00959936 -3.23132e-09
4.4265e-09 0.00959936 -3.27485e-09
4.59179e-09 0.00959936 -3.38172e-09
4.74894e-09 0.00959936 -3.3373e-09
4.86027e-09 0.00959936 -3.22936e-09
5.0356e-09 0.00959936 -3.3161e-09
4.96685e-09 0.0106899 -4.11052e-09
5.01097e-09 0.0106899 -4.30418e-09
5.14022e-09 0.0106899 -4.44255e-09
5.44754e-09 0.0106899 -4.27886e-09
5.9667e-09 0.0106899 -4.08863e-09
4.79221e-09 0.0106899 -4.25296e-09
5.01092e-09 0.0106899 -4.25127e-09
5.2459e-09 0.0106899 -4.31203e-09
5.42223e-09 0.0106899 -4.29312e-09
5.81876e-09 0.0106899 -4.30109e-09
4.69694e-09 0.0106899 -4.25441e-09
5.04689e-09 0.0106899 -4.15867e-09
5.23258e-09 0.0106899 -4.21361e-09
5.46322e-09 0.0106899 -4.16834e-09
5.63298e-09 0.0106899 -4.26051e-09
4.74771e-09 0.0106899 -4.17533e-09
5.01013e-09 0.0106899 -4.25282e-09
5.29719e-09 0.0106899 -4.14166e-09
5.3608e-09 0.0106899 -4.263e-09
5.66082e-09 0.0106899 -4.19268e-09
4.85243e-09 0.0106899 -4.14034e-09
5.1529e-09 0.0106899 -4.26645e-09
5.27514e-09 0.0106899 -4.27448e-09
5.38054e-09 0.0106899 -4.13801e-09
5.74366e-09 0.0106899 -4.23092e-09
5.29293e-09 0.011776 -4.99382e-09
5.47764e-09 0.011776 -5.06943e-09
5.7345e-09 0.011776 -4.97755e-09
5.96014e-09 0.011776 -4.78235e-09
6.0336e-09 0.011776 -4.77518e-09
5.19099e-09 0.011776 -4.95418e-09
5.53438e-09 0.011776 -5.09827e-09
5.68963e-09 0.011776 -4.94753e-09
5.95941e-09 0.011776 -4.8948e-09
6.05677e-09 0.011776 -4.83974e-09
5.24126e-09 0.011776 -4.89366e-09
5.46435e-09 0.011776 -4.88267e-09
5.69117e-09 0.011776 -4.92679e-09
5.7899e-09 0.011776 -5.0813e-09
6.19703e-09 0.011776 -4.99062e-09
5.15478e-09 0.011776 -4.93179e-09
5.47987e-09 0.011776 -4.83737e-09
5.59192e-09 0.011776 -4.96584e-09
5.82277e-09 0.011776 -4.89987e-09
6.10587e-09 0.011776 -4.98498e-09
5.29669e-09 0.011776 -4.73292e-09
5.38216e-09 0.011776 -4.88885e-09
5.57074e-09 0.011776 -5.04286e-09
5.96425e-09 0.011776 -4.94014e-09
6.01356e-09 0.011776 -4.70926e-09
5.82599e-09 0.0128597 -5.47764e-09
5.83378e-09 0.0128597 -5.48021e-09
6.23749e-09 0.0128597 -5.38768e-09
6.34345e-09 0.0128597 -5.59166e-09
6.20488e-09 0.0128597 -5.54327e-09
5.88158e-09 0.0128597 -5.47035e-09
5.90194e-09 0.0128597 -5.44779e-09
6.20702e-09 0.0128597 -5.44906e-09
6.13919e-09 0.0128597 -5.54245e-09
6.35694e-09 0.0128597 -5.55126e-09
5.90847e-09 0.0128597 -5.50715e-09
5.82999e-09 0.0128597 -5.5094e-09
6.04419e-09 0.0128597 -5.64927e-09
6.13704e-09 0.0128597 -5.46492e-09
6.44852e-09 0.0128597 -5.61348e-09
5.91547e-09 0.0128597 -5.43585e-09
5.76591e-09 0.0128597 -5.54084e-09
6.01223e-09 0.0128597 -5.42392e-09
6.10773e-09 0.0128597 -5.58774e-09
6.31209e-09 0.0128597 -5.52065e-09
5.83229e-09 0.0128597 -5.50317e-09
5.76718e-09 0.0128597 -5.38122e-09
6.03662e-09 0.0128597 -5.54899e-09
6.05391e-09 0.0128597 -5.42312e-09
6.27629e-09 0.0128597 -5.55369e-09
5.9534e-09 0.0139451 -5.85239e-09
6.5533e-09 0.0139451 -5.9093e-09
6.25718e-09 0.0139451 -6.04356e-09
6.22607e-09 0.0139451 -6.22464e-09
6.66516e-09 0.0139451 -6.04329e-09
6.43246e-09 0.0139451 -5.86228e-09
6.19812e-09 0.0139451 -5.89641e-09
6.24786e-09 0.0139451 -6.02445e-09
6.42787e-09 0.0139451 -6.04449e-09
6.47458e-09 0.0139451 -6.02512e-09
6.05944e-09 0.0139451 -6.05585e-09
6.12358e-09 0.0139451 -5.94908e-09
6.32847e-09 0.0139451 -5.94959e-09
6.35681e-09 0.0139451 -5.95669e-09
6.34769e-09 0.0139451 -5.99796e-09
6.06212e-09 0.0139451 -5.91813e-09
6.17627e-09 0.0139451 -6.06239e-09
6.33886e-09 0.0139451 -5.90686e-09
6.38038e-09 0.0139451 -6.04164e-09
6.65495e-09 0.0139451 -6.02744e-09
5.93941e-09 0.0139451 -5.9925e-09
6.08908e-09 0.0139451 -5.95541e-09
6.31931e-09 0.0139451 -5.97213e-09
6.37496e-09 0.0139451 -5.88987e-09
6.6451e-09 0.0139451 -6.21936e-09
6.89331e-09 0.015038 -6.24594e-09
6.30025e-09 0.015038 -6.40155e-09
6.43245e-09 0.015038 -6.47396e-09
6.48863e-09 0.015038 -6.44408e-09
6.19042e-09 0.015038 -6.42838e-09
6.58376e-09 0.015038 -6.35284e-09
6.44588e-09 0.015038 -6.41319e-09
6.31715e-09 0.015038 -6.52023e-09
6.40601e-09 0.015038 -6.4873e-09
6.41261e-09 0.015038 -6.31542e-09
6.34116e-09 0.015038 -6.38395e-09
6.28012e-09 0.015038 -6.32307e-09
6.37641e-09 0.015038 -6.24467e-09
6.42317e-09 0.015038 -6.43333e-09
6.52742e-09 0.015038 -6.36339e-09
6.08795e-09 0.015038 -6.18219e-09
6.25911e-09 0.015038 -6.20875e-09
6.52738e-09 0.015038 -6.20054e-09
6.37821e-09 0.015038 -6.35824e-09
6.55298e-09 0.015038 -6.25675e-09
5.86736e-09 0.015038 -6.03772e-09
6.36875e-09 0.015038 -6.08024e-09
6.42837e-09 0.015038 -6.14124e-09
6.42379e-09 0.015038 -6.27736e-09
6.55252e-09 0.015038 -6.04511e-09
6.327e-09 0.0161437 -6.55892e-09
6.38592e-09 0.0161437 -6.35297e-09
6.29177e-09 0.0161437 -6.80582e-09
6.40797e-09 0.0161437 -6.76402e-09
6.76806e-09 0.0161437 -6.72928e-09
6.39127e-09 0.0161437 -6.64615e-09
6.24872e-09 0.0161437 -6.76054e-09
6.34689e-09 0.0161437 -6.75092e-09
6.29531e-09 0.0161437 -6.75085e-09
6.4729e-09 0.0161437 -6.80238e-09
6.28601e-09 0.0161437 -6.48703e-09
6.34246e-09 0.0161437 -6.56277e-09
6.19263e-09 0.0161437 -6.57334e-09
6.26659e-09 0.0161437 -6.68614e-09
6.50602e-09 0.0161437 -6.75302e-09
6.33571e-09 0.0161437 -6.51293e-09
6.16996e-09 0.0161437 -6.4613e-09
6.30933e-09 0.0161437 -6.51408e-09
6.25516e-09 0.0161437 -6.53864e-09
6.22599e-09 0.0161437 -6.53892e-09
6.45816e-09 0.0161437 -6.50997e-09
6.10618e-09 0.0161437 -6.40425e-09
6.2269e-09 0.0161437 -6.48225e-09
6.10973e-09 0.0161437 -6.61203e-09
6.55774e-09 0.0161437 -6.21912e-09
5.59979e-09 0.0172658 -7.07877e-09
5.95923e-09 0.0172658 -6.80892e-09
5.92179e-09 0.0172658 -6.88929e-09
6.03107e-09 0.0172658 -6.90667e-09
6.17816e-09 0.0172658 -7.20128e-09
5.93423e-09 0.0172658 -6.85616e-09
6.00162e-09 0.0172658 -6.87316e-09
6.03339e-09 0.0172658 -6.93195e-09
5.99057e-09 0.0172658 -7.03592e-09
6.31754e-09 0.0172658 -6.92632e-09
6.28094e-09 0.0172658 -6.67779e-09
5.94724e-09 0.0172658 -6.75612e-09
6.10143e-09 0.0172658 -6.72955e-09
5.9118e-09 0.0172658 -6.95438e-09
6.0142e-09 0.0172658 -6.94389e-09
6.07442e-09 0.0172658 -6.80931e-09
5.99014e-09 0.0172658 -6.68042e-09
5.96176e-09 0.0172658 -6.64771e-09
5.87942e-09 0.0172658 -6.76722e-09
6.31463e-09 0.0172658 -6.84339e-09
6.12575e-09 0.0172658 -6.88251e-09
6.1661e-09 0.0172658 -6.91325e-09
5.94338e-09 0.0172658 -6.80987e-09
6.2634e-09 0.0172658 -6.76861e-09
6.07941e-09 0.0172658 -6.85322e-09
5.66636e-09 0.018405 -6.83969e-09
5.24143e-09 0.018405 -7.02533e-09
5.62289e-09 0.018405 -6.82904e-09
5.3757e-09 0.018405 -7.12716e-09
5.85509e-09 0.018405 -7.14523e-09
5.6645e-09 0.018405 -6.87791e-09
5.37185e-09 0.018405 -7.00777e-09
5.47261e-09 0.018405 -7.09257e-09
5.43686e-09 0.018405 -7.21543e-09
5.52064e-09 0.018405 -7.15439e-09
5.5654e-09 0.018405 -6.98056e-09
5.53308e-09 0.018405 -7.09801e-09
5.50287e-09 0.018405 -7.0342e-09
5.52362e-09 0.018405 -7.14775e-09
5.31617e-09 0.018405 -7.17139e-09
5.86426e-09 0.018405 -7.14626e-09
5.52622e-09 0.018405 -7.22146e-09
5.48731e-09 0.018405 -7.18889e-09
5.60532e-09 0.018405 -7.18874e-09
5.42109e-09 0.018405 -7.0639e-09
5.78276e-09 0.018405 -6.84538e-09
5.48209e-09 0.018405 -7.0787e-09
5.59911e-09 0.018405 -7.14616e-09
5.63595e-09 0.018405 -6.94673e-09
5.57006e-09 0.018405 -6.95655e-09
4.72707e-09 0.019559 -7.3966e-09
4.59621e-09 0.0195591 -7.39645e-09
4.93649e-09 0.0195591 -7.31126e-09
4.81174e-09 0.0195591 -7.72947e-09
5.12297e-09 0.0195591 -7.43208e-09
4.82073e-09 0.0195591 -7.51861e-09
4.64987e-09 0.0195591 -7.52139e-09
4.8512e-09 0.0195591 -7.42237e-09
4.87772e-09 0.0195591 -7.4172e-09
5.26197e-09 0.0195591 -7.6346e-09
4.83697e-09 0.0195591 -7.45096e-09
4.63709e-09 0.0195591 -7.6926e-09
4.82198e-09 0.0195591 -7.571e-09
4.96274e-09 0.0195591 -7.69913e-09
5.28809e-09 0.0195591 -7.55205e-09
4.60435e-09 0.0195591 -7.54602e-09
4.70265e-09 0.0195591 -7.60212e-09
4.90355e-09 0.019559 -7.67884e-09
5.11967e-09 0.0195591 -7.49213e-09
5.26694e-09 0.0195591 -7.51561e-09
4.57724e-09 0.0195591 -7.49825e-09
4.7404e-09 0.019559 -7.47252e-09
5.20701e-09 0.0195591 -7.48999e-09
5.13175e-09 0.019559 -7.47901e-09
5.14996e-09 0.0195591 -7.62785e-09
3.48675e-09 0.0207237 -8.03566e-09
3.86447e-09 0.0207237 -8.00733e-09
3.82741e-09 0.0207237 -8.19767e-09
4.3826e-09 0.0207237 -8.16586e-09
4.81719e-09 0.0207237 -8.14989e-09
3.71131e-09 0.0207237 -7.9655e-09
3.80843e-09 0.0207237 -8.03668e-09
4.15218e-09 0.0207237 -7.87213e-09
4.28059e-09 0.0207237 -7.94365e-09
4.92507e-09 0.0207237 -8.16642e-09
3.46606e-09 0.0207237 -8.1512e-09
3.81167e-09 0.0207237 -7.99526e-09
4.07797e-09 0.0207237 -8.17231e-09
4.38146e-09 0.0207237 -8.11901e-09
4.87959e-09 0.0207237 -8.13125e-09
3.48344e-09 0.0207237 -8.02389e-09
3.74208e-09 0.0207237 -8.08623e-09
4.12677e-09 0.0207237 -7.79075e-09
4.41948e-09 0.0207237 -8.15138e-09
4.9535e-09 0.0207237 -8.12721e-09
2.82754e-09 0.0207237 -7.72921e-09
3.91634e-09 0.0207237 -7.81778e-09
4.23658e-09 0.0207237 -7.93085e-09
4.48762e-09 0.0207237 -8.32354e-09
4.72679e-09 0.0207237 -8.10306e-09
2.6579e-09 0.0218954 -8.3942e-09
2.78061e-09 0.0218954 -8.61044e-09
3.29705e-09 0.0218954 -8.531e-09
3.24551e-09 0.0218954 -8.71096e-09
4.20805e-09 0.0218954 -8.63632e-09
2.46764e-09 0.0218954 -8.65913e-09
2.71847e-09 0.0218954 -8.63532e-09
2.98575e-09 0.0218954 -8.76333e-09
3.50179e-09 0.0218954 -8.7391e-09
3.95326e-09 0.0218954 -8.73851e-09
2.34051e-09 0.0218954 -8.77277e-09
2.64106e-09 0.0218954 -8.56353e-09
3.17908e-09 0.0218954 -8.53991e-09
3.57992e-09 0.0218954 -8.75322e-09
4.31394e-09 0.0218954 -8.86918e-09
2.07412e-09 0.0218954 -8.3169e-09
2.61478e-09 0.0218954 -8.63974e-09
3.01204e-09 0.0218954 -8.54121e-09
3.54454e-09 0.0218954 -8.68133e-09
3.87445e-09 0.0218954 -8.74933e-09
2.39756e-09 0.0218954 -8.40139e-09
2.54564e-09 0.0218954 -8.49994e-09
3.10442e-09 0.0218954 -8.68366e-09
3.25287e-09 0.0218954 -8.69275e-09
4.36603e-09 0.0218954 -8.57e-09
1.61535e-09 0.0230733 -9.41967e-09
1.18603e-09 0.0230733 -9.32357e-09
2.13992e-09 0.0230733 -9.64499e-09
2.00354e-09 0.0230733 -9.8492e-09
3.18554e-09 0.0230733 -9.24534e-09
8.39625e-10 0.0230733 -9.51767e-09
1.35619e-09 0.0230733 -9.47726e-09
1.85374e-09 0.0230733 -9.44768e-09
2.36324e-09 0.0230733 -9.52023e-09
3.00137e-09 0.0230733 -9.45997e-09
8.82967e-10 0.0230733 -9.33302e-09
1.26803e-09 0.0230733 -9.17758e-09
1.85067e-09 0.0230733 -9.28436e-09
2.45782e-09 0.0230733 -9.43933e-09
3.28889e-09 0.0230733 -9.6882e-09
7.69997e-10 0.0230733 -8.98927e-09
1.29975e-09 0.0230733 -9.15707e-09
1.85547e-09 0.0230733 -9.23359e-09
2.28803e-09 0.0230732 -9.52075e-09
3.46464e-09 0.0230732 -9.33998e-09
9.64255e-10 0.0230733 -9.1162e-09
1.10412e-09 0.0230732 -9.04214e-09
1.87194e-09 0.0230733 -9.37236e-09
2.3513e-09 0.0230733 -9.65982e-09
2.66996e-09 0.0230732 -9.25171e-09
-9.44846e-10 0.0242615 -1.0804e-08
6.73781e-11 0.0242615 -1.06038e-08
1.58816e-10 0.0242615 -1.12235e-08
9.77485e-10 0.0242615 -1.05948e-08
1.62345e-09 0.0242615 -1.03288e-08
-7.05183e-10 0.0242615 -1.03257e-08
-4.98184e-11 0.0242615 -1.05931e-08
3.77389e-10 0.0242615 -1.05354e-08
1.06964e-09 0.0242615 -1.04922e-08
1.54146e-09 0.0242615 -1.04068e-08
-6.36714e-10 0.0242615 -1.02117e-08
-2.00318e-10 0.0242615 -1.01437e-08
3.26337e-10 0.0242615 -1.02289e-08
8.85396e-10 0.0242615 -1.05813e-08
2.73628e-09 0.0242615 -1.04676e-08
-6.21633e-10 0.0242615 -1.03491e-08
-7.44993e-11 0.0242615 -1.00965e-08
3.98064e-10 0.0242615 -1.01702e-08
9.3137e-10 0.0242615 -1.01968e-08
1.88238e-09 0.0242615 -1.04113e-08
-3.06508e-10 0.0242615 -1.03176e-08
-9.87965e-11 0.0242615 -1.00879e-08
5.49423e-10 0.0242615 -1.03521e-08
1.08566e-09 0.0242615 -1.01828e-08
1.1728e-09 0.0242615 -1.02488e-08
-2.35752e-09 0.0254687 -1.16481e-08
-1.73661e-09 0.0254687 -1.22039e-08
-9.55133e-10 0.0254687 -1.20886e-08
-2.79374e-10 0.0254687 -1.18022e-08
-3.68267e-10 0.0254687 -1.19863e-08
-2.19376e-09 0.0254687 -1.17993e-08
-1.70967e-09 0.0254687 -1.17074e-08
-1.0177e-09 0.0254687 -1.16654e-08
-5.25332e-10 0.0254687 -1.18249e-08
2.74057e-10 0.0254687 -1.17388e-08
-2.04363e-09 0.0254687 -1.15434e-08
-1.55328e-09 0.0254687 -1.15081e-08
-1.17564e-09 0.0254687 -1.12972e-08