<?xml version="1.0"?>
<VTKFile type="UnstructuredGrid" version="0.1" byte_order="LittleEndian">
<UnstructuredGrid>
<Piece NumberOfPoints="1025" NumberOfCells="640">
<Points>
<DataArray type="Float32" NumberOfComponents="3" format="ascii">
0 0 0
0.025 0 0
0.05 0 0
0.075 0 0
0.1 0 0
0 0.025 0
0.025 0.025 0
0.05 0.025 0
0.075 0.025 0
0.1 0.025 0
0 0.05 0
0.025 0.05 0
0.05 0.05 0
0.075 0.05 0
0.1 0.05 0
0 0.075 0
0.025 0.075 0
0.05 0.075 0
0.075 0.075 0
0.1 0.075 0
0 0.1 0
0.025 0.1 0
0.05 0.1 0
0.075 0.1 0
0.1 0.1 0
0 0 0.025
0.025 0 0.025
0.05 0 0.025
0.075 0 0.025
0.1 0 0.025
0 0.025 0.025
0.025 0.025 0.025
0.05 0.025 0.025
0.075 0.025 0.025
0.1 0.025 0.025
0 0.05 0.025
0.025 0.05 0.025
0.05 0.05 0.025
0.075 0.05 0.025
0.1 0.05 0.025
0 0.075 0.025
0.025 0.075 0.025
0.05 0.075 0.025
0.075 0.075 0.025
0.1 0.075 0.025
0 0.1 0.025
0.025 0.1 0.025
0.05 0.1 0.025
0.075 0.1 0.025
0.1 0.1 0.025
0 0 0.05
0.025 0 0.05
0.05 0 0.05
0.075 0 0.05
0.1 0 0.05
0 0.025 0.05
0.025 0.025 0.05
0.05 0.025 0.05
0.075 0.025 0.05
0.1 0.025 0.05
0 0.05 0.05
0.025 0.05 0.05
0.05 0.05 0.05
0.075 0.05 0.05
0.1 0.05 0.05
0 0.075 0.05
0.025 0.075 0.05
0.05 0.075 0.05
0.075 0.075 0.05
0.1 0.075 0.05
0 0.1 0.05
0.025 0.1 0.05
0.05 0.1 0.05
0.075 0.1 0.05
0.1 0.1 0.05
0 0 0.075
0.025 0 0.075
0.05 0 0.075
0.075 0 0.075
0.1 0 0.075
0 0.025 0.075
0.025 0.025 0.075
0.05 0.025 0.075
0.075 0.025 0.075
0.1 0.025 0.075
0 0.05 0.075
0.025 0.05 0.075
0.05 0.05 0.075
0.075 0.05 0.075
0.1 0.05 0.075
0 0.075 0.075
0.025 0.075 0.075
0.05 0.075 0.075
0.075 0.075 0.075
0.1 0.075 0.075
0 0.1 0.075
0.025 0.1 0.075
0.05 0.1 0.075
0.075 0.1 0.075
0.1 0.1 0.075
0 0 0.1
0.025 0 0.1
0.05 0 0.1
0.075 0 0.1
0.1 0 0.1
0 0.025 0.1
0.025 0.025 0.1
0.05 0.025 0.1
0.075 0.025 0.1
0.1 0.025 0.1
0 0.05 0.1
0.025 0.05 0.1
0.05 0.05 0.1
0.075 0.05 0.1
0.1 0.05 0.1
0 0.075 0.1
0.025 0.075 0.1
0.05 0.075 0.1
0.075 0.075 0.1
0.1 0.075 0.1
0 0.1 0.1
0.025 0.1 0.1
0.05 0.1 0.1
0.075 0.1 0.1
0.1 0.1 0.1
0 0 0.125
0.025 0 0.125
0.05 0 0.125
0.075 0 0.125
0.1 0 0.125
0 0.025 0.125
0.025 0.025 0.125
0.05 0.025 0.125
0.075 0.025 0.125
0.1 0.025 0.125
0 0.05 0.125
0.025 0.05 0.125
0.05 0.05 0.125
0.075 0.05 0.125
0.1 0.05 0.125
0 0.075 0.125
0.025 0.075 0.125
0.05 0.075 0.125
0.075 0.075 0.125
0.1 0.075 0.125
0 0.1 0.125
0.025 0.1 0.125
0.05 0.1 0.125
0.075 0.1 0.125
0.1 0.1 0.125
0 0 0.15
0.025 0 0.15
0.05 0 0.15
0.075 0 0.15
0.1 0 0.15
0 0.025 0.15
0.025 0.025 0.15
0.05 0.025 0.15
0.075 0.025 0.15
0.1 0.025 0.15
0 0.05 0.15
0.025 0.05 0.15
0.05 0.05 0.15
0.075 0.05 0.15
0.1 0.05 0.15
0 0.075 0.15
0.025 0.075 0.15
0.05 0.075 0.15
0.075 0.075 0.15
0.1 0.075 0.15
0 0.1 0.15
0.025 0.1 0.15
0.05 0.1 0.15
0.075 0.1 0.15
0.1 0.1 0.15
0 0 0.175
0.025 0 0.175
0.05 0 0.175
0.075 0 0.175
0.1 0 0.175
0 0.025 0.175
0.025 0.025 0.175
0.05 0.025 0.175
0.075 0.025 0.175
0.1 0.025 0.175
0 0.05 0.175
0.025 0.05 0.175
0.05 0.05 0.175
0.075 0.05 0.175
0.1 0.05 0.175
0 0.075 0.175
0.025 0.075 0.175
0.05 0.075 0.175
0.075 0.075 0.175
0.1 0.075 0.175
0 0.1 0.175
0.025 0.1 0.175
0.05 0.1 0.175
0.075 0.1 0.175
0.1 0.1 0.175
0 0 0.2
0.025 0 0.2
0.05 0 0.2
0.075 0 0.2
0.1 0 0.2
0 0.025 0.2
0.025 0.025 0.2
0.05 0.025 0.2
0.075 0.025 0.2
0.1 0.025 0.2
0 0.05 0.2
0.025 0.05 0.2
0.05 0.05 0.2
0.075 0.05 0.2
0.1 0.05 0.2
0 0.075 0.2
0.025 0.075 0.2
0.05 0.075 0.2
0.075 0.075 0.2
0.1 0.075 0.2
0 0.1 0.2
0.025 0.1 0.2
0.05 0.1 0.2
0.075 0.1 0.2
0.1 0.1 0.2
0 0 0.225
0.025 0 0.225
0.05 0 0.225
0.075 0 0.225
0.1 0 0.225
0 0.025 0.225
0.025 0.025 0.225
0.05 0.025 0.225
0.075 0.025 0.225
0.1 0.025 0.225
0 0.05 0.225
0.025 0.05 0.225
0.05 0.05 0.225
0.075 0.05 0.225
0.1 0.05 0.225
0 0.075 0.225
0.025 0.075 0.225
0.05 0.075 0.225
0.075 0.075 0.225
0.1 0.075 0.225
0 0.1 0.225
0.025 0.1 0.225
0.05 0.1 0.225
0.075 0.1 0.225
0.1 0.1 0.225
0 0 0.25
0.025 0 0.25
0.05 0 0.25
0.075 0 0.25
0.1 0 0.25
0 0.025 0.25
0.025 0.025 0.25
0.05 0.025 0.25
0.075 0.025 0.25
0.1 0.025 0.25
0 0.05 0.25
0.025 0.05 0.25
0.05 0.05 0.25
0.075 0.05 0.25
0.1 0.05 0.25
0 0.075 0.25
0.025 0.075 0.25
0.05 0.075 0.25
0.075 0.075 0.25
0.1 0.075 0.25
0 0.1 0.25
0.025 0.1 0.25
0.05 0.1 0.25
0.075 0.1 0.25
0.1 0.1 0.25
0 0 0.275
0.025 0 0.275
0.05 0 0.275
0.075 0 0.275
0.1 0 0.275
0 0.025 0.275
0.025 0.025 0.275
0.05 0.025 0.275
0.075 0.025 0.275
0.1 0.025 0.275
0 0.05 0.275
0.025 0.05 0.275
0.05 0.05 0.275
0.075 0.05 0.275
0.1 0.05 0.275
0 0.075 0.275
0.025 0.075 0.275
0.05 0.075 0.275
0.075 0.075 0.275
0.1 0.075 0.275
0 0.1 0.275
0.025 0.1 0.275
0.05 0.1 0.275
0.075 0.1 0.275
0.1 0.1 0.275
0 0 0.3
0.025 0 0.3
0.05 0 0.3
0.075 0 0.3
0.1 0 0.3
0 0.025 0.3
0.025 0.025 0.3
0.05 0.025 0.3
0.075 0.025 0.3
0.1 0.025 0.3
0 0.05 0.3
0.025 0.05 0.3
0.05 0.05 0.3
0.075 0.05 0.3
0.1 0.05 0.3
0 0.075 0.3
0.025 0.075 0.3
0.05 0.075 0.3
0.075 0.075 0.3
0.1 0.075 0.3
0 0.1 0.3
0.025 0.1 0.3
0.05 0.1 0.3
0.075 0.1 0.3
0.1 0.1 0.3
0 0 0.325
0.025 0 0.325
0.05 0 0.325
0.075 0 0.325
0.1 0 0.325
0 0.025 0.325
0.025 0.025 0.325
0.05 0.025 0.325
0.075 0.025 0.325
0.1 0.025 0.325
0 0.05 0.325
0.025 0.05 0.325
0.05 0.05 0.325
0.075 0.05 0.325
0.1 0.05 0.325
0 0.075 0.325
0.025 0.075 0.325
0.05 0.075 0.325
0.075 0.075 0.325
0.1 0.075 0.325
0 0.1 0.325
0.025 0.1 0.325
0.05 0.1 0.325
0.075 0.1 0.325
0.1 0.1 0.325
0 0 0.35
0.025 0 0.35
0.05 0 0.35
0.075 0 0.35
0.1 0 0.35
0 0.025 0.35
0.025 0.025 0.35
0.05 0.025 0.35
0.075 0.025 0.35
0.1 0.025 0.35
0 0.05 0.35
0.025 0.05 0.35
0.05 0.05 0.35
0.075 0.05 0.35
0.1 0.05 0.35
0 0.075 0.35
0.025 0.075 0.35
0.05 0.075 0.35
0.075 0.075 0.35
0.1 0.075 0.35
0 0.1 0.35
0.025 0.1 0.35
0.05 0.1 0.35
0.075 0.1 0.35
0.1 0.1 0.35
0 0 0.375
0.025 0 0.375
0.05 0 0.375
0.075 0 0.375
0.1 0 0.375
0 0.025 0.375
0.025 0.025 0.375
0.05 0.025 0.375
0.075 0.025 0.375
0.1 0.025 0.375
0 0.05 0.375
0.025 0.05 0.375
0.05 0.05 0.375
0.075 0.05 0.375
0.1 0.05 0.375
0 0.075 0.375
0.025 0.075 0.375
0.05 0.075 0.375
0.075 0.075 0.375
0.1 0.075 0.375
0 0.1 0.375
0.025 0.1 0.375
0.05 0.1 0.375
0.075 0.1 0.375
0.1 0.1 0.375
0 0 0.4
0.025 0 0.4
0.05 0 0.4
0.075 0 0.4
0.1 0 0.4
0 0.025 0.4
0.025 0.025 0.4
0.05 0.025 0.4
0.075 0.025 0.4
0.1 0.025 0.4
0 0.05 0.4
0.025 0.05 0.4
0.05 0.05 0.4
0.075 0.05 0.4
0.1 0.05 0.4
0 0.075 0.4
0.025 0.075 0.4
0.05 0.075 0.4
0.075 0.075 0.4
0.1 0.075 0.4
0 0.1 0.4
0.025 0.1 0.4
0.05 0.1 0.4
0.075 0.1 0.4
0.1 0.1 0.4
0 0 0.425
0.025 0 0.425
0.05 0 0.425
0.075 0 0.425
0.1 0 0.425
0 0.025 0.425
0.025 0.025 0.425
0.05 0.025 0.425
0.075 0.025 0.425
0.1 0.025 0.425
0 0.05 0.425
0.025 0.05 0.425
0.05 0.05 0.425
0.075 0.05 0.425
0.1 0.05 0.425
0 0.075 0.425
0.025 0.075 0.425
0.05 0.075 0.425
0.075 0.075 0.425
0.1 0.075 0.425
0 0.1 0.425
0.025 0.1 0.425
0.05 0.1 0.425
0.075 0.1 0.425
0.1 0.1 0.425
0 0 0.45
0.025 0 0.45
0.05 0 0.45
0.075 0 0.45
0.1 0 0.45
0 0.025 0.45
0.025 0.025 0.45
0.05 0.025 0.45
0.075 0.025 0.45
0.1 0.025 0.45
0 0.05 0.45
0.025 0.05 0.45
0.05 0.05 0.45
0.075 0.05 0.45
0.1 0.05 0.45
0 0.075 0.45
0.025 0.075 0.45
0.05 0.075 0.45
0.075 0.075 0.45
0.1 0.075 0.45
0 0.1 0.45
0.025 0.1 0.45
0.05 0.1 0.45
0.075 0.1 0.45
0.1 0.1 0.45
0 0 0.475
0.025 0 0.475
0.05 0 0.475
0.075 0 0.475
0.1 0 0.475
0 0.025 0.475
0.025 0.025 0.475
0.05 0.025 0.475
0.075 0.025 0.475
0.1 0.025 0.475
0 0.05 0.475
0.025 0.05 0.475
0.05 0.05 0.475
0.075 0.05 0.475
0.1 0.05 0.475
0 0.075 0.475
0.025 0.075 0.475
0.05 0.075 0.475
0.075 0.075 0.475
0.1 0.075 0.475
0 0.1 0.475
0.025 0.1 0.475
0.05 0.1 0.475
0.075 0.1 0.475
0.1 0.1 0.475
0 0 0.5
0.025 0 0.5
0.05 0 0.5
0.075 0 0.5
0.1 0 0.5
0 0.025 0.5
0.025 0.025 0.5
0.05 0.025 0.5
0.075 0.025 0.5
0.1 0.025 0.5
0 0.05 0.5
0.025 0.05 0.5
0.05 0.05 0.5
0.075 0.05 0.5
0.1 0.05 0.5
0 0.075 0.5
0.025 0.075 0.5
0.05 0.075 0.5
0.075 0.075 0.5
0.1 0.075 0.5
0 0.1 0.5
0.025 0.1 0.5
0.05 0.1 0.5
0.075 0.1 0.5
0.1 0.1 0.5
0 0 0.525
0.025 0 0.525
0.05 0 0.525
0.075 0 0.525
0.1 0 0.525
0 0.025 0.525
0.025 0.025 0.525
0.05 0.025 0.525
0.075 0.025 0.525
0.1 0.025 0.525
0 0.05 0.525
0.025 0.05 0.525
0.05 0.05 0.525
0.075 0.05 0.525
0.1 0.05 0.525
0 0.075 0.525
0.025 0.075 0.525
0.05 0.075 0.525
0.075 0.075 0.525
0.1 0.075 0.525
0 0.1 0.525
0.025 0.1 0.525
0.05 0.1 0.525
0.075 0.1 0.525
0.1 0.1 0.525
0 0 0.55
0.025 0 0.55
0.05 0 0.55
0.075 0 0.55
0.1 0 0.55
0 0.025 0.55
0.025 0.025 0.55
0.05 0.025 0.55
0.075 0.025 0.55
0.1 0.025 0.55
0 0.05 0.55
0.025 0.05 0.55
0.05 0.05 0.55
0.075 0.05 0.55
0.1 0.05 0.55
0 0.075 0.55
0.025 0.075 0.55
0.05 0.075 0.55
0.075 0.075 0.55
0.1 0.075 0.55
0 0.1 0.55
0.025 0.1 0.55
0.05 0.1 0.55
0.075 0.1 0.55
0.1 0.1 0.55
0 0 0.575
0.025 0 0.575
0.05 0 0.575
0.075 0 0.575
0.1 0 0.575
0 0.025 0.575
0.025 0.025 0.575
0.05 0.025 0.575
0.075 0.025 0.575
0.1 0.025 0.575
0 0.05 0.575
0.025 0.05 0.575
0.05 0.05 0.575
0.075 0.05 0.575
0.1 0.05 0.575
0 0.075 0.575
0.025 0.075 0.575
0.05 0.075 0.575
0.075 0.075 0.575
0.1 0.075 0.575
0 0.1 0.575
0.025 0.1 0.575
0.05 0.1 0.575
0.075 0.1 0.575
0.1 0.1 0.575
0 0 0.6
0.025 0 0.6
0.05 0 0.6
0.075 0 0.6
0.1 0 0.6
0 0.025 0.6
0.025 0.025 0.6
0.05 0.025 0.6
0.075 0.025 0.6
0.1 0.025 0.6
0 0.05 0.6
0.025 0.05 0.6
0.05 0.05 0.6
0.075 0.05 0.6
0.1 0.05 0.6
0 0.075 0.6
0.025 0.075 0.6
0.05 0.075 0.6
0.075 0.075 0.6
0.1 0.075 0.6
0 0.1 0.6
0.025 0.1 0.6
0.05 0.1 0.6
0.075 0.1 0.6
0.1 0.1 0.6
0 0 0.625
0.025 0 0.625
0.05 0 0.625
0.075 0 0.625
0.1 0 0.625
0 0.025 0.625
0.025 0.025 0.625
0.05 0.025 0.625
0.075 0.025 0.625
0.1 0.025 0.625
0 0.05 0.625
0.025 0.05 0.625
0.05 0.05 0.625
0.075 0.05 0.625
0.1 0.05 0.625
0 0.075 0.625
0.025 0.075 0.625
0.05 0.075 0.625
0.075 0.075 0.625
0.1 0.075 0.625
0 0.1 0.625
0.025 0.1 0.625
0.05 0.1 0.625
0.075 0.1 0.625
0.1 0.1 0.625
0 0 0.65
0.025 0 0.65
0.05 0 0.65
0.075 0 0.65
0.1 0 0.65
0 0.025 0.65
0.025 0.025 0.65
0.05 0.025 0.65
0.075 0.025 0.65
0.1 0.025 0.65
0 0.05 0.65
0.025 0.05 0.65
0.05 0.05 0.65
0.075 0.05 0.65
0.1 0.05 0.65
0 0.075 0.65
0.025 0.075 0.65
0.05 0.075 0.65
0.075 0.075 0.65
0.1 0.075 0.65
0 0.1 0.65
0.025 0.1 0.65
0.05 0.1 0.65
0.075 0.1 0.65
0.1 0.1 0.65
0 0 0.675
0.025 0 0.675
0.05 0 0.675
0.075 0 0.675
0.1 0 0.675
[...]
<PointData Vectors="Displacement">
<DataArray type="Float32" Name="Displacement" NumberOfComponents="3" format="ascii">
0 0 0
0 0 0
0 0 0
0 0 0
0 0 0
0 0 0
0 0 0
0 0 0
0 0 0
0 0 0
0 0 0
0 0 0
0 0 0
0 0 0
0 0 0
0 0 0
0 0 0
0 0 0
0 0 0
0 0 0
0 0 0
0 0 0
0 0 0
0 0 0
0 0 0
1.86265e-10 0.00407979 8.26313e-10
-1.65403e-10 0.00407979 7.32764e-10
-1.85519e-10 0.00407979 7.7486e-10
-2.66731e-10 0.00407979 6.75302e-10
-3.47381e-10 0.00407979 6.58315e-10
-1.73416e-11 0.00407979 6.60401e-10
-7.06059e-11 0.00407979 6.79865e-10
-2.08474e-10 0.00407979 7.28574e-10
-2.58193e-10 0.00407979 7.04303e-10
-3.5814e-10 0.00407979 6.89331e-10
4.93369e-11 0.00407979 6.33968e-10
-9.01986e-11 0.00407979 6.63241e-10
-1.93267e-10 0.00407979 6.80238e-10
-2.31684e-10 0.00407979 7.40825e-10
-3.46638e-10 0.00407979 6.79004e-10
1.7602e-10 0.00407979 7.00982e-10
-7.67409e-11 0.00407979 6.8564e-10
-1.39495e-10 0.00407979 7.57459e-10
-1.98743e-10 0.00407979 6.95675e-10
-3.65544e-10 0.00407979 7.83429e-10
2.03496e-10 0.00407979 6.46653e-10
-5.52973e-11 0.00407979 8.26758e-10
-2.02436e-10 0.00407979 7.9632e-10
-2.33622e-10 0.00407979 8.27799e-10
-4.08397e-10 0.00407979 7.53999e-10
-1.0892e-10 0.00813265 1.36718e-09
-2.563e-10 0.00813265 1.51283e-09
-3.1311e-10 0.00813264 1.51023e-09
-4.83543e-10 0.00813265 1.34539e-09
-5.6792e-10 0.00813264 1.22234e-09
-1.34485e-10 0.00813265 1.45547e-09
-2.65543e-10 0.00813265 1.41421e-09
-3.82296e-10 0.00813265 1.37568e-09
-4.92483e-10 0.00813264 1.42807e-09
-5.12972e-10 0.00813264 1.3696e-09
-1.92225e-10 0.00813265 1.29966e-09
-1.4212e-10 0.00813265 1.30042e-09
-3.33627e-10 0.00813264 1.39382e-09
-5.02169e-10 0.00813264 1.44218e-09
-4.61563e-10 0.00813264 1.53854e-09
2.65986e-10 0.00813265 1.45389e-09
-2.19326e-10 0.00813264 1.41766e-09
-2.63495e-10 0.00813264 1.51448e-09
-4.48152e-10 0.00813264 1.52499e-09
-5.92693e-10 0.00813264 1.42705e-09
1.34111e-10 0.00813265 1.58437e-09
-1.28724e-10 0.00813265 1.58027e-09
-3.31598e-10 0.00813264 1.69105e-09
-3.22238e-10 0.00813264 1.37408e-09
-7.50273e-10 0.00813264 1.57183e-09
-4.17698e-10 0.0121315 2.10833e-09
-4.05312e-10 0.0121315 2.1636e-09
-7.8436e-10 0.0121315 2.37426e-09
-6.87689e-10 0.0121315 2.29584e-09
-6.16908e-10 0.0121315 2.1114e-09
-5.49783e-10 0.0121315 2.07312e-09
-4.25057e-10 0.0121315 2.11903e-09
-4.22018e-10 0.0121315 2.11382e-09
-6.90293e-10 0.0121315 2.1909e-09
-7.49528e-10 0.0121315 2.0552e-09
-2.64263e-10 0.0121315 2.19941e-09
-4.72739e-10 0.0121315 2.25659e-09
-3.71039e-10 0.0121315 2.24681e-09
-5.79702e-10 0.0121315 2.29101e-09
-6.90762e-10 0.0121315 2.10662e-09
-9.67539e-11 0.0121315 2.16091e-09
-2.97097e-10 0.0121315 2.16104e-09
-4.60143e-10 0.0121315 2.35887e-09
-5.3892e-10 0.0121315 2.30232e-09
-5.2778e-10 0.0121315 2.39901e-09
5.69506e-11 0.0121315 2.10903e-09
-2.68745e-10 0.0121315 2.31117e-09
-5.14442e-10 0.0121315 1.98721e-09
-5.0797e-10 0.0121315 2.35923e-09
-5.73322e-10 0.0121315 2.38009e-09
-8.76829e-10 0.0160491 2.77311e-09
-4.56125e-10 0.0160491 2.87555e-09
-6.09271e-10 0.0160491 2.81813e-09
-8.42987e-10 0.0160491 2.77452e-09
8.34464e-11 0.0160491 3.00221e-09
-4.22793e-10 0.0160491 3.02703e-09
-6.47409e-10 0.0160491 2.86577e-09
-5.89155e-10 0.0160491 2.8247e-09
-7.689e-10 0.0160491 2.87569e-09
-7.56048e-10 0.0160491 3.1459e-09
-3.94206e-10 0.0160491 3.15958e-09
-5.62566e-10 0.0160491 3.01306e-09
-6.0387e-10 0.0160491 2.93253e-09
-7.55935e-10 0.0160491 3.16594e-09
-7.82311e-10 0.0160491 2.91075e-09
-2.83391e-10 0.0160491 3.00156e-09
-6.14587e-10 0.0160491 3.0129e-09
-5.96139e-10 0.0160491 2.89566e-09
-6.41856e-10 0.0160491 3.20468e-09
-7.3144e-10 0.0160491 2.98976e-09
-2.83308e-10 0.0160491 3.11145e-09
-7.15551e-10 0.0160491 2.88854e-09
-5.49015e-10 0.0160491 3.10799e-09
-4.33647e-10 0.0160491 2.98576e-09
-6.97747e-10 0.0160491 3.2707e-09
-5.89628e-10 0.0198579 4.10415e-09
-5.08736e-10 0.0198579 4.2859e-09
-7.40397e-10 0.0198579 3.85117e-09
-7.16559e-10 0.0198579 3.65414e-09
-7.46222e-10 0.0198579 4.16189e-09
-5.90303e-10 0.0198579 3.84618e-09
-6.36502e-10 0.0198579 4.05327e-09
-6.03832e-10 0.0198579 4.01652e-09
-6.67231e-10 0.0198579 4.07884e-09
-4.23754e-10 0.0198579 3.87241e-09
-5.50637e-10 0.0198579 4.04477e-09
-8.29995e-10 0.0198579 4.07118e-09
-5.24521e-10 0.0198579 3.97964e-09
-7.47293e-10 0.0198579 4.05847e-09
-7.86685e-10 0.0198579 4.35114e-09
-4.88758e-10 0.0198579 4.13103e-09
-4.56721e-10 0.0198579 4.05903e-09
-5.18013e-10 0.0198579 4.23222e-09
-8.15652e-10 0.0198579 3.97787e-09
-8.64267e-10 0.0198579 3.85971e-09
-3.29026e-10 0.0198579 3.88944e-09
-8.02428e-10 0.0198579 3.74094e-09
-4.61563e-10 0.0198579 3.95887e-09
-6.8132e-10 0.0198579 4.04687e-09
-1.10865e-09 0.0198579 4.33888e-09
2.75669e-11 0.0235299 5.28805e-09
-5.18374e-10 0.0235299 5.24671e-09
-7.74913e-10 0.0235299 5.14356e-09
-9.4486e-10 0.0235299 5.63916e-09
-5.76675e-10 0.0235299 5.38547e-09
-8.36747e-10 0.0235299 5.1491e-09
-7.53346e-10 0.0235299 5.14649e-09
-6.85358e-10 0.0235299 4.82203e-09
-6.6713e-10 0.0235299 5.12218e-09
-6.10336e-10 0.0235299 5.35827e-09
-4.78792e-10 0.0235299 5.42309e-09
-6.82473e-10 0.0235299 5.09843e-09
-6.93393e-10 0.0235299 5.05857e-09
-7.06315e-10 0.0235299 4.92372e-09
-6.03293e-10 0.0235299 5.14993e-09
-5.62146e-10 0.0235299 5.1024e-09
-5.95302e-10 0.0235299 5.05969e-09
-4.54858e-10 0.0235299 5.21503e-09
-7.93487e-10 0.0235299 4.84906e-09
-8.94815e-10 0.0235299 5.2475e-09
-6.37583e-10 0.0235299 5.64307e-09
-6.16475e-10 0.0235299 4.79887e-09
-1.8445e-10 0.0235299 4.8878e-09
-7.77841e-10 0.0235299 5.1056e-09
-9.77516e-10 0.0235299 4.83319e-09
-5.55813e-10 0.0270369 6.64294e-09
-5.63386e-10 0.0270369 6.43767e-09
-3.9408e-10 0.0270369 6.5472e-09
-1.99181e-10 0.0270369 6.46599e-09
-1.5974e-09 0.0270369 6.8686e-09
-4.0289e-10 0.0270369 6.47422e-09
-5.1614e-10 0.0270369 6.10255e-09
-5.43148e-10 0.0270369 6.59884e-09
-6.04428e-10 0.0270369 6.23166e-09
-7.12089e-10 0.0270369 6.41755e-09
-6.78003e-10 0.0270369 6.35239e-09
-4.82798e-10 0.0270369 6.50138e-09
-4.61098e-10 0.0270369 6.31641e-09
-7.02939e-10 0.0270369 6.4708e-09
-1.09486e-09 0.0270369 6.32002e-09
-1.44541e-10 0.0270369 6.50164e-09
-1.53289e-10 0.0270369 6.23928e-09
-6.95512e-10 0.0270369 6.24358e-09
-7.44312e-10 0.0270369 6.31082e-09
-1.03563e-09 0.0270369 6.28065e-09
-2.3772e-10 0.0270369 6.46412e-09
-7.21523e-11 0.0270369 6.70718e-09
-3.49019e-10 0.0270369 6.4224e-09
-8.84422e-10 0.0270369 6.45102e-09
-5.60283e-10 0.0270369 6.41164e-09
6.17837e-10 0.0303504 7.26171e-09
-9.19402e-10 0.0303504 8.03344e-09
-1.28709e-10 0.0303504 7.21937e-09
-7.7039e-10 0.0303504 8.18608e-09
-3.15614e-10 0.0303504 8.2165e-09
2.2621e-11 0.0303504 8.06389e-09
-7.36295e-11 0.0303504 7.72614e-09
-4.80813e-10 0.0303504 7.85198e-09
-6.90857e-10 0.0303504 7.97467e-09
-5.7444e-10 0.0303504 7.87328e-09
-2.82377e-10 0.0303504 7.99205e-09
-1.35158e-10 0.0303504 7.89441e-09
-2.52482e-10 0.0303504 7.49827e-09
-1.18343e-09 0.0303504 7.62164e-09
-7.84977e-10 0.0303504 7.7568e-09
3.21121e-10 0.0303504 8.07747e-09
-1.6314e-10 0.0303504 7.78413e-09
-2.6878e-10 0.0303504 7.88268e-09
-1.02362e-09 0.0303504 7.54991e-09
-1.26958e-09 0.0303504 7.88746e-09
2.05658e-12 0.0303504 7.87675e-09
-2.76174e-10 0.0303504 8.00267e-09
-7.56259e-10 0.0303504 7.72327e-09
-9.55669e-10 0.0303504 7.40344e-09
-1.18837e-09 0.0303504 7.70017e-09
-4.21424e-10 0.0334419 9.6708e-09
-8.00915e-12 0.0334419 9.06284e-09
-4.03682e-10 0.0334419 8.60807e-09
-9.73567e-10 0.0334419 9.19225e-09
-1.66744e-09 0.0334419 9.2404e-09
1.09074e-09 0.0334419 9.19888e-09
-2.91269e-10 0.0334419 9.0164e-09
-5.27362e-10 0.0334419 9.04486e-09
-6.64172e-10 0.0334419 8.90584e-09
-8.55326e-10 0.0334419 9.21654e-09
3.44962e-10 0.0334419 9.18399e-09
2.12341e-10 0.0334419 8.90717e-09
-3.44217e-10 0.0334419 9.10952e-09
-6.24918e-10 0.0334419 9.14321e-09
-5.81517e-10 0.0334419 9.44046e-09
5.03624e-10 0.0334419 8.73618e-09
6.15045e-10 0.0334419 9.40952e-09
1.13342e-10 0.0334419 9.54131e-09
-4.90621e-10 0.0334419 9.36165e-09
-1.09896e-09 0.0334419 9.32908e-09
8.94551e-11 0.0334419 9.25795e-09
8.75909e-10 0.0334419 9.24181e-09
4.39346e-10 0.0334419 9.38612e-09
-7.36676e-10 0.0334419 9.81186e-09
-2.34456e-09 0.0334419 9.44417e-09
5.96047e-10 0.0362832 1.13243e-08
2.9146e-11 0.0362832 1.12308e-08
-2.62623e-10 0.0362832 1.03199e-08
-5.21541e-10 0.0362832 1.09869e-08
-2.63937e-10 0.0362832 1.10712e-08
4.68642e-10 0.0362832 1.13279e-08
1.85798e-10 0.0362832 1.08436e-08
1.72854e-10 0.0362832 1.06079e-08
-5.66616e-10 0.0362832 1.08778e-08
8.8159e-10 0.0362832 1.09581e-08
2.61144e-10 0.0362832 1.10003e-08
5.41657e-10 0.0362832 1.0936e-08
-8.94067e-11 0.0362832 1.10682e-08
-7.21421e-11 0.0362832 1.10141e-08
3.91852e-10 0.0362832 1.09031e-08
1.60297e-09 0.0362832 1.08981e-08
5.10365e-10 0.0362832 1.09419e-08
7.6294e-10 0.0362832 1.08704e-08
-2.01165e-10 0.0362832 1.05988e-08
-4.23938e-10 0.0362832 1.06226e-08
8.08575e-10 0.0362832 1.06897e-08
1.21684e-09 0.0362832 1.04849e-08
3.33786e-10 0.0362832 1.03386e-08
-2.57611e-10 0.0362832 1.05277e-08
-1.46758e-09 0.0362832 9.46298e-09
1.35899e-09 0.0388468 1.33481e-08
1.34706e-09 0.0388467 1.24201e-08
1.16869e-09 0.0388468 1.2902e-08
6.49691e-10 0.0388468 1.34499e-08
-4.3353e-11 0.0388468 1.34444e-08
7.08178e-10 0.0388468 1.32007e-08
1.37262e-09 0.0388468 1.26911e-08
6.4373e-10 0.0388468 1.26845e-08
4.97326e-10 0.0388468 1.32235e-08
-2.65707e-10 0.0388468 1.28447e-08
1.13249e-09 0.0388468 1.28851e-08
1.06096e-09 0.0388467 1.29347e-08
1.055e-09 0.0388467 1.26155e-08
1.43051e-10 0.0388468 1.24726e-08
4.29154e-10 0.0388468 1.31807e-08
8.13604e-10 0.0388467 1.26033e-08
1.37091e-09 0.0388467 1.2468e-08
6.3926e-10 0.0388467 1.25194e-08
6.66082e-10 0.0388468 1.23951e-08
-1.6091e-10 0.0388468 1.23036e-08
2.38307e-09 0.0388468 1.27509e-08
1.07288e-09 0.0388467 1.28873e-08
8.46386e-10 0.0388467 1.19179e-08
9.46224e-10 0.0388468 1.21895e-08
-7.84825e-10 0.0388468 1.2454e-08
2.90349e-09 0.0411062 1.52528e-08
2.57492e-09 0.0411062 1.52873e-08
2.38419e-09 0.0411062 1.44802e-08
8.76188e-10 0.0411062 1.42191e-08
-6.4373e-10 0.0411062 1.48735e-08
1.66115e-09 0.0411062 1.54808e-08
2.40877e-09 0.0411062 1.49041e-08
1.9019e-09 0.0411062 1.51917e-08
8.34465e-10 0.0411062 1.44802e-08
3.8147e-10 0.0411062 1.46354e-08
2.70903e-09 0.0411062 1.48374e-08
1.75396e-09 0.0411062 1.45687e-08
1.70618e-09 0.0411062 1.42393e-08
9.25269e-10 0.0411062 1.48096e-08
5.21539e-11 0.0411062 1.47001e-08
2.91122e-09 0.0411062 1.48599e-08
1.62572e-09 0.0411062 1.46758e-08
1.9505e-09 0.0411062 1.42835e-08
1.14143e-09 0.0411062 1.43963e-08
1.07288e-09 0.0411062 1.48708e-08
2.19345e-09 0.0411062 1.40873e-08
2.39322e-09 0.0411062 1.44021e-08
1.97887e-09 0.0411062 1.50071e-08
9.83476e-10 0.0411062 1.43317e-08
2.12193e-09 0.0411062 1.40767e-08
4.0831e-09 0.0430372 1.77432e-08
3.25657e-09 0.0430372 1.65737e-08
2.09659e-09 0.0430372 1.70895e-08
1.29938e-09 0.0430372 1.54765e-08
1.88351e-09 0.0430372 1.64256e-08
4.2151e-09 0.0430372 1.68841e-08
2.58535e-09 0.0430372 1.70387e-08
2.3568e-09 0.0430372 1.64325e-08
1.99373e-09 0.0430372 1.63955e-08
1.56164e-09 0.0430372 1.67491e-08
2.74181e-09 0.0430372 1.69741e-08
2.85953e-09 0.0430372 1.70269e-08
2.88561e-09 0.0430372 1.65002e-08
2.4125e-09 0.0430372 1.65028e-08
1.21647e-09 0.0430372 1.68104e-08
2.44684e-09 0.0430372 1.69007e-08
3.24771e-09 0.0430372 1.64803e-08
3.3292e-09 0.0430372 1.66379e-08
2.27536e-09 0.0430372 1.70827e-08
2.56615e-09 0.0430372 1.67176e-08
3.27528e-09 0.0430372 1.7174e-08
3.29018e-09 0.0430372 1.73964e-08
3.06513e-09 0.0430372 1.69929e-08
3.23301e-09 0.0430372 1.71061e-08
2.623e-09 0.0430372 1.63779e-08
5.28842e-09 0.0446182 1.84488e-08
4.41074e-09 0.0446182 1.86617e-08
3.95626e-09 0.0446182 1.7407e-08
2.55312e-09 0.0446182 1.84751e-08
2.36705e-09 0.0446182 1.87025e-08
5.3206e-09 0.0446182 1.91454e-08
4.16171e-09 0.0446182 1.85641e-08
3.30313e-09 0.0446182 1.86563e-08
3.15905e-09 0.0446182 1.82807e-08
2.09808e-09 0.0446182 1.8393e-08
3.99947e-09 0.0446182 1.9353e-08
3.8892e-09 0.0446182 1.91179e-08
3.84301e-09 0.0446182 1.88573e-08
3.49283e-09 0.0446182 1.87952e-08
1.79471e-09 0.0446182 1.86054e-08
3.95775e-09 0.0446182 2.01516e-08
4.01437e-09 0.0446182 1.97202e-08
4.94854e-09 0.0446182 1.91525e-08
3.618e-09 0.0446182 1.90094e-08
3.15309e-09 0.0446182 1.90947e-08
4.73782e-09 0.0446182 2.10833e-08
4.43459e-09 0.0446182 2.0408e-08
4.64916e-09 0.0446182 2.01675e-08
4.73261e-09 0.0446182 1.99031e-08
4.23366e-09 0.0446182 1.98431e-08
7.02739e-09 0.0458316 2.12402e-08
4.76241e-09 0.0458316 2.03885e-08
4.41968e-09 0.0458316 2.05803e-08
3.61218e-09 0.0458316 1.9893e-08
3.71933e-09 0.0458315 1.98727e-08
6.14321e-09 0.0458316 2.07536e-08
5.54472e-09 0.0458316 2.09979e-08
4.40776e-09 0.0458316 2.02197e-08
3.7428e-09 0.0458315 2.04544e-08
3.5435e-09 0.0458315 2.04983e-08
5.59595e-09 0.0458315 2.18292e-08
4.77996e-09 0.0458316 2.08967e-08
4.93228e-09 0.0458316 2.10717e-08
4.05908e-09 0.0458316 2.09015e-08
4.45906e-09 0.0458315 2.03575e-08
6.0676e-09 0.0458316 2.24465e-08
4.89357e-09 0.0458316 2.22868e-08
5.32419e-09 0.0458315 2.18127e-08
5.35846e-09 0.0458316 2.10571e-08
4.38094e-09 0.0458315 2.11539e-08
5.46575e-09 0.0458316 2.24423e-08
4.75049e-09 0.0458316 2.25529e-08
6.38802e-09 0.0458315 2.21014e-08
5.077e-09 0.0458316 2.09553e-08
6.51805e-09 0.0458315 2.18868e-08
5.70919e-09 0.0466648 2.26822e-08
6.70048e-09 0.0466648 2.2858e-08
5.24521e-09 0.0466648 2.26546e-08
5.09512e-09 0.0466648 2.29024e-08
6.38962e-09 0.0466648 2.41484e-08
5.97237e-09 0.0466648 2.28441e-08
6.46477e-09 0.0466648 2.29332e-08
5.77013e-09 0.0466648 2.34137e-08
5.1852e-09 0.0466648 2.23546e-08
4.33326e-09 0.0466648 2.3155e-08
5.88298e-09 0.0466648 2.42676e-08
6.25551e-09 0.0466648 2.35058e-08
6.31809e-09 0.0466648 2.3526e-08
5.45978e-09 0.0466648 2.29835e-08
4.6905e-09 0.0466648 2.35243e-08
7.4403e-09 0.0466648 2.43413e-08
6.04059e-09 0.0466648 2.4195e-08
5.95897e-09 0.0466648 2.39916e-08
5.68628e-09 0.0466648 2.40088e-08
6.11235e-09 0.0466648 2.32647e-08
6.4373e-09 0.0466648 2.41643e-08
6.29425e-09 0.0466648 2.5257e-08
5.36463e-09 0.0466648 2.41749e-08
6.61483e-09 0.0466648 2.43775e-08
5.72205e-09 0.0466648 2.40161e-08
9.26574e-09 0.047112 2.54212e-08
7.86781e-09 0.047112 2.53449e-08
7.50124e-09 0.047112 2.6682e-08
6.62804e-09 0.047112 2.64492e-08
6.17293e-09 0.047112 2.70153e-08
7.26577e-09 0.047112 2.58424e-08
7.29573e-09 0.047112 2.55585e-08
7.48634e-09 0.047112 2.58178e-08
6.53267e-09 0.047112 2.58712e-08
7.60688e-09 0.0471119 2.57305e-08
7.952e-09 0.047112 2.61913e-08
7.56085e-09 0.047112 2.55391e-08
7.14362e-09 0.047112 2.57437e-08
7.2452e-09 0.047112 2.58959e-08
6.27637e-09 0.047112 2.58096e-08
7.44116e-09 0.047112 2.61625e-08
7.26576e-09 0.047112 2.59133e-08
7.27745e-09 0.047112 2.66078e-08
7.18359e-09 0.047112 2.60772e-08
5.49651e-09 0.047112 2.59363e-08
8.18297e-09 0.047112 2.59098e-08
6.97251e-09 0.047112 2.64486e-08
7.61805e-09 0.047112 2.68634e-08
7.84365e-09 0.047112 2.65567e-08
5.76377e-09 0.047112 2.53789e-08
7.80597e-09 0.0471754 2.8497e-08
9.44138e-09 0.0471754 2.87378e-08
9.04985e-09 0.0471754 2.95959e-08
7.48038e-09 0.0471754 2.85044e-08
9.59635e-09 0.0471754 2.80067e-08
9.36461e-09 0.0471754 2.89854e-08
8.26309e-09 0.0471754 2.87172e-08
9.48906e-09 0.0471754 2.89617e-08
8.23736e-09 0.0471754 2.86562e-08
8.34465e-09 0.0471754 2.84848e-08
8.33869e-09 0.0471754 2.90983e-08
8.58605e-09 0.0471754 2.85392e-08
8.5016e-09 0.0471754 2.82961e-08
8.87955e-09 0.0471754 2.85895e-08
7.83931e-09 0.0471754 2.85327e-08
8.49172e-09 0.0471754 2.88604e-08
8.87215e-09 0.0471754 2.8696e-08
8.90344e-09 0.0471754 2.83841e-08
8.89309e-09 0.0471754 2.82191e-08
8.48472e-09 0.0471754 2.84072e-08
9.10163e-09 0.0471754 2.89649e-08
8.56277e-09 0.0471754 2.89924e-08
9.5699e-09 0.0471754 2.80907e-08
8.33236e-09 0.0471754 2.83195e-08
8.96454e-09 0.0471754 2.84601e-08
9.34601e-09 0.0468673 3.1365e-08
9.5975e-09 0.0468673 3.24354e-08
9.99198e-09 0.0468673 3.08104e-08
1.07765e-08 0.0468673 3.10527e-08
9.09383e-09 0.0468673 3.0525e-08
9.85377e-09 0.0468673 3.22355e-08
9.80534e-09 0.0468673 3.13664e-08
1.02457e-08 0.0468673 3.16322e-08
9.84669e-09 0.0468673 3.13528e-08
9.97148e-09 0.0468673 3.04869e-08
9.7918e-09 0.0468673 3.15122e-08
1.01924e-08 0.0468673 3.19194e-08
1.0103e-08 0.0468673 3.15547e-08
9.58472e-09 0.0468673 3.1335e-08
1.02076e-08 0.0468673 3.0957e-08
1.00001e-08 0.0468673 3.16656e-08
9.8096e-09 0.0468673 3.14713e-08
1.01048e-08 0.0468673 3.13815e-08
9.9367e-09 0.0468673 3.09394e-08
9.8882e-09 0.0468673 3.04878e-08
7.81184e-09 0.0468673 3.22998e-08
9.8865e-09 0.0468673 3.13171e-08
1.04564e-08 0.0468673 3.042e-08
1.01513e-08 0.0468673 3.1278e-08
9.83626e-09 0.0468673 3.14431e-08
1.18734e-08 0.0462118 3.49878e-08
1.11818e-08 0.0462118 3.6127e-08
1.21753e-08 0.0462118 3.39223e-08
1.03951e-08 0.0462118 3.41129e-08
1.26362e-08 0.0462118 3.3142e-08
1.13964e-08 0.0462118 3.52467e-08
1.13756e-08 0.0462118 3.51672e-08
1.13366e-08 0.0462118 3.48601e-08
1.1158e-08 0.0462118 3.37356e-08
1.11028e-08 0.0462118 3.37061e-08
1.11923e-08 0.0462118 3.48318e-08
1.09106e-08 0.0462118 3.45311e-08
1.12653e-08 0.0462118 3.46727e-08
1.1462e-08 0.0462118 3.41743e-08
1.11045e-08 0.0462118 3.41517e-08
1.10388e-08 0.0462118 3.50242e-08
1.09643e-08 0.0462118 3.45507e-08
1.10731e-08 0.0462118 3.49757e-08
1.1112e-08 0.0462118 3.46146e-08
1.1909e-08 0.0462118 3.39259e-08
1.16807e-08 0.0462118 3.37124e-08
1.0857e-08 0.0462118 3.43518e-08
1.10815e-08 0.0462118 3.42028e-08
1.08927e-08 0.0462118 3.39499e-08
1.12534e-08 0.0462118 3.41579e-08
1.31369e-08 0.0452466 3.78013e-08
1.24931e-08 0.0452466 3.81213e-08
1.24455e-08 0.0452466 3.73483e-08
1.1754e-08 0.0452466 3.71626e-08
1.1989e-08 0.0452466 3.70053e-08
1.25497e-08 0.0452466 3.82483e-08
1.25878e-08 0.0452466 3.78162e-08
1.23501e-08 0.0452466 3.79413e-08
1.20997e-08 0.0452466 3.70111e-08
1.28221e-08 0.0452466 3.75953e-08
1.27099e-08 0.0452466 3.77654e-08
1.21969e-08 0.0452466 3.83168e-08
1.2207e-08 0.0452466 3.79331e-08
1.21139e-08 0.0452465 3.73783e-08
1.33357e-08 0.0452465 3.74299e-08
1.19428e-08 0.0452466 3.76987e-08
1.2476e-08 0.0452465 3.78612e-08
1.2394e-08 0.0452466 3.7526e-08
1.23948e-08 0.0452465 3.74562e-08
1.27792e-08 0.0452465 3.72891e-08
1.23713e-08 0.0452465 3.80397e-08
1.21504e-08 0.0452465 3.66988e-08
1.28304e-08 0.0452465 3.80371e-08
1.25963e-08 0.0452465 3.68888e-08
1.26646e-08 0.0452465 3.77178e-08
1.40568e-08 0.0440249 4.10199e-08
1.37174e-08 0.0440249 4.08776e-08
1.33832e-08 0.0440249 4.02299e-08
1.30266e-08 0.0440249 4.07614e-08
1.37788e-08 0.0440249 4.07411e-08
1.38715e-08 0.0440249 4.11849e-08
1.35574e-08 0.0440249 4.09837e-08
1.35183e-08 0.0440249 4.05273e-08
1.30653e-08 0.0440249 4.08462e-08
1.38089e-08 0.0440249 4.0781e-08
1.31182e-08 0.0440249 4.0634e-08
1.37885e-08 0.0440249 4.10706e-08
1.29156e-08 0.0440249 4.06647e-08
1.34051e-08 0.0440249 4.0319e-08
1.39184e-08 0.0440248 4.09311e-08
1.44184e-08 0.0440249 4.04351e-08
1.34841e-08 0.0440249 4.10702e-08
1.35832e-08 0.0440249 4.07425e-08
1.35064e-08 0.0440248 4.05198e-08
1.40071e-08 0.0440248 4.04043e-08
1.4805e-08 0.0440249 4.03306e-08
1.36175e-08 0.0440249 4.04212e-08
1.32773e-08 0.0440249 4.0081e-08
1.38389e-08 0.0440248 4.0832e-08
1.32032e-08 0.0440248 4.08172e-08
1.4126e-08 0.042617 4.3883e-08
1.45182e-08 0.042617 4.41009e-08
1.45458e-08 0.042617 4.29405e-08
1.42559e-08 0.042617 4.27618e-08
1.42311e-08 0.042617 4.31538e-08
1.49637e-08 0.042617 4.36407e-08
1.42783e-08 0.042617 4.37268e-08
1.45853e-08 0.042617 4.32918e-08
1.4271e-08 0.042617 4.29011e-08
1.46568e-08 0.042617 4.35206e-08
1.47408e-08 0.042617 4.35561e-08
1.44646e-08 0.042617 4.34918e-08
1.45942e-08 0.042617 4.30854e-08
1.40979e-08 0.042617 4.33396e-08
1.46985e-08 0.042617 4.3157e-08
1.49816e-08 0.042617 4.35029e-08
1.44142e-08 0.042617 4.33766e-08
1.43302e-08 0.042617 4.32585e-08
1.43831e-08 0.042617 4.30884e-08
1.48602e-08 0.042617 4.31948e-08
1.38819e-08 0.042617 4.27425e-08
1.4668e-08 0.042617 4.32534e-08
1.47069e-08 0.042617 4.33847e-08
1.42023e-08 0.042617 4.30141e-08
1.4995e-08 0.042617 4.27942e-08
1.49727e-08 0.0411115 4.57794e-08
1.53913e-08 0.0411115 4.64665e-08
1.52933e-08 0.0411115 4.5304e-08