<?xml version="1.0"?>
<VTKFile type="UnstructuredGrid" version="0.1" byte_order="LittleEndian">
<UnstructuredGrid>
<Piece NumberOfPoints="1025" NumberOfCells="640">
<Points>
<DataArray type="Float32" NumberOfComponents="3" format="ascii">
0 0 0
0.025 0 0
0.05 0 0
0.075 0 0
0.1 0 0
0 0.025 0
0.025 0.025 0
0.05 0.025 0
0.075 0.025 0
0.1 0.025 0
0 0.05 0
0.025 0.05 0
0.05 0.05 0
0.075 0.05 0
0.1 0.05 0
0 0.075 0
0.025 0.075 0
0.05 0.075 0
0.075 0.075 0
0.1 0.075 0
0 0.1 0
0.025 0.1 0
0.05 0.1 0
0.075 0.1 0
0.1 0.1 0
0 0 0.025
0.025 0 0.025
0.05 0 0.025
0.075 0 0.025
0.1 0 0.025
0 0.025 0.025
0.025 0.025 0.025
0.05 0.025 0.025
0.075 0.025 0.025
0.1 0.025 0.025
0 0.05 0.025
0.025 0.05 0.025
0.05 0.05 0.025
0.075 0.05 0.025
0.1 0.05 0.025
0 0.075 0.025
0.025 0.075 0.025
0.05 0.075 0.025
0.075 0.075 0.025
0.1 0.075 0.025
0 0.1 0.025
0.025 0.1 0.025
0.05 0.1 0.025
0.075 0.1 0.025
0.1 0.1 0.025
0 0 0.05
0.025 0 0.05
0.05 0 0.05
0.075 0 0.05
0.1 0 0.05
0 0.025 0.05
0.025 0.025 0.05
0.05 0.025 0.05
0.075 0.025 0.05
0.1 0.025 0.05
0 0.05 0.05
0.025 0.05 0.05
0.05 0.05 0.05
0.075 0.05 0.05
0.1 0.05 0.05
0 0.075 0.05
0.025 0.075 0.05
0.05 0.075 0.05
0.075 0.075 0.05
0.1 0.075 0.05
0 0.1 0.05
0.025 0.1 0.05
0.05 0.1 0.05
0.075 0.1 0.05
0.1 0.1 0.05
0 0 0.075
0.025 0 0.075
0.05 0 0.075
0.075 0 0.075
0.1 0 0.075
0 0.025 0.075
0.025 0.025 0.075
0.05 0.025 0.075
0.075 0.025 0.075
0.1 0.025 0.075
0 0.05 0.075
0.025 0.05 0.075
0.05 0.05 0.075
0.075 0.05 0.075
0.1 0.05 0.075
0 0.075 0.075
0.025 0.075 0.075
0.05 0.075 0.075
0.075 0.075 0.075
0.1 0.075 0.075
0 0.1 0.075
0.025 0.1 0.075
0.05 0.1 0.075
0.075 0.1 0.075
0.1 0.1 0.075
0 0 0.1
0.025 0 0.1
0.05 0 0.1
0.075 0 0.1
0.1 0 0.1
0 0.025 0.1
0.025 0.025 0.1
0.05 0.025 0.1
0.075 0.025 0.1
0.1 0.025 0.1
0 0.05 0.1
0.025 0.05 0.1
0.05 0.05 0.1
0.075 0.05 0.1
0.1 0.05 0.1
0 0.075 0.1
0.025 0.075 0.1
0.05 0.075 0.1
0.075 0.075 0.1
0.1 0.075 0.1
0 0.1 0.1
0.025 0.1 0.1
0.05 0.1 0.1
0.075 0.1 0.1
0.1 0.1 0.1
0 0 0.125
0.025 0 0.125
0.05 0 0.125
0.075 0 0.125
0.1 0 0.125
0 0.025 0.125
0.025 0.025 0.125
0.05 0.025 0.125
0.075 0.025 0.125
0.1 0.025 0.125
0 0.05 0.125
0.025 0.05 0.125
0.05 0.05 0.125
0.075 0.05 0.125
0.1 0.05 0.125
0 0.075 0.125
0.025 0.075 0.125
0.05 0.075 0.125
0.075 0.075 0.125
0.1 0.075 0.125
0 0.1 0.125
0.025 0.1 0.125
0.05 0.1 0.125
0.075 0.1 0.125
0.1 0.1 0.125
0 0 0.15
0.025 0 0.15
0.05 0 0.15
0.075 0 0.15
0.1 0 0.15
0 0.025 0.15
0.025 0.025 0.15
0.05 0.025 0.15
0.075 0.025 0.15
0.1 0.025 0.15
0 0.05 0.15
0.025 0.05 0.15
0.05 0.05 0.15
0.075 0.05 0.15
0.1 0.05 0.15
0 0.075 0.15
0.025 0.075 0.15
0.05 0.075 0.15
0.075 0.075 0.15
0.1 0.075 0.15
0 0.1 0.15
0.025 0.1 0.15
0.05 0.1 0.15
0.075 0.1 0.15
0.1 0.1 0.15
0 0 0.175
0.025 0 0.175
0.05 0 0.175
0.075 0 0.175
0.1 0 0.175
0 0.025 0.175
0.025 0.025 0.175
0.05 0.025 0.175
0.075 0.025 0.175
0.1 0.025 0.175
0 0.05 0.175
0.025 0.05 0.175
0.05 0.05 0.175
0.075 0.05 0.175
0.1 0.05 0.175
0 0.075 0.175
0.025 0.075 0.175
0.05 0.075 0.175
0.075 0.075 0.175
0.1 0.075 0.175
0 0.1 0.175
0.025 0.1 0.175
0.05 0.1 0.175
0.075 0.1 0.175
0.1 0.1 0.175
0 0 0.2
0.025 0 0.2
0.05 0 0.2
0.075 0 0.2
0.1 0 0.2
0 0.025 0.2
0.025 0.025 0.2
0.05 0.025 0.2
0.075 0.025 0.2
0.1 0.025 0.2
0 0.05 0.2
0.025 0.05 0.2
0.05 0.05 0.2
0.075 0.05 0.2
0.1 0.05 0.2
0 0.075 0.2
0.025 0.075 0.2
0.05 0.075 0.2
0.075 0.075 0.2
0.1 0.075 0.2
0 0.1 0.2
0.025 0.1 0.2
0.05 0.1 0.2
0.075 0.1 0.2
0.1 0.1 0.2
0 0 0.225
0.025 0 0.225
0.05 0 0.225
0.075 0 0.225
0.1 0 0.225
0 0.025 0.225
0.025 0.025 0.225
0.05 0.025 0.225
0.075 0.025 0.225
0.1 0.025 0.225
0 0.05 0.225
0.025 0.05 0.225
0.05 0.05 0.225
0.075 0.05 0.225
0.1 0.05 0.225
0 0.075 0.225
0.025 0.075 0.225
0.05 0.075 0.225
0.075 0.075 0.225
0.1 0.075 0.225
0 0.1 0.225
0.025 0.1 0.225
0.05 0.1 0.225
0.075 0.1 0.225
0.1 0.1 0.225
0 0 0.25
0.025 0 0.25
0.05 0 0.25
0.075 0 0.25
0.1 0 0.25
0 0.025 0.25
0.025 0.025 0.25
0.05 0.025 0.25
0.075 0.025 0.25
0.1 0.025 0.25
0 0.05 0.25
0.025 0.05 0.25
0.05 0.05 0.25
0.075 0.05 0.25
0.1 0.05 0.25
0 0.075 0.25
0.025 0.075 0.25
0.05 0.075 0.25
0.075 0.075 0.25
0.1 0.075 0.25
0 0.1 0.25
0.025 0.1 0.25
0.05 0.1 0.25
0.075 0.1 0.25
0.1 0.1 0.25
0 0 0.275
0.025 0 0.275
0.05 0 0.275
0.075 0 0.275
0.1 0 0.275
0 0.025 0.275
0.025 0.025 0.275
0.05 0.025 0.275
0.075 0.025 0.275
0.1 0.025 0.275
0 0.05 0.275
0.025 0.05 0.275
0.05 0.05 0.275
0.075 0.05 0.275
0.1 0.05 0.275
0 0.075 0.275
0.025 0.075 0.275
0.05 0.075 0.275
0.075 0.075 0.275
0.1 0.075 0.275
0 0.1 0.275
0.025 0.1 0.275
0.05 0.1 0.275
0.075 0.1 0.275
0.1 0.1 0.275
0 0 0.3
0.025 0 0.3
0.05 0 0.3
0.075 0 0.3
0.1 0 0.3
0 0.025 0.3
0.025 0.025 0.3
0.05 0.025 0.3
0.075 0.025 0.3
0.1 0.025 0.3
0 0.05 0.3
0.025 0.05 0.3
0.05 0.05 0.3
0.075 0.05 0.3
0.1 0.05 0.3
0 0.075 0.3
0.025 0.075 0.3
0.05 0.075 0.3
0.075 0.075 0.3
0.1 0.075 0.3
0 0.1 0.3
0.025 0.1 0.3
0.05 0.1 0.3
0.075 0.1 0.3
0.1 0.1 0.3
0 0 0.325
0.025 0 0.325
0.05 0 0.325
0.075 0 0.325
0.1 0 0.325
0 0.025 0.325
0.025 0.025 0.325
0.05 0.025 0.325
0.075 0.025 0.325
0.1 0.025 0.325
0 0.05 0.325
0.025 0.05 0.325
0.05 0.05 0.325
0.075 0.05 0.325
0.1 0.05 0.325
0 0.075 0.325
0.025 0.075 0.325
0.05 0.075 0.325
0.075 0.075 0.325
0.1 0.075 0.325
0 0.1 0.325
0.025 0.1 0.325
0.05 0.1 0.325
0.075 0.1 0.325
0.1 0.1 0.325
0 0 0.35
0.025 0 0.35
0.05 0 0.35
0.075 0 0.35
0.1 0 0.35
0 0.025 0.35
0.025 0.025 0.35
0.05 0.025 0.35
0.075 0.025 0.35
0.1 0.025 0.35
0 0.05 0.35
0.025 0.05 0.35
0.05 0.05 0.35
0.075 0.05 0.35
0.1 0.05 0.35
0 0.075 0.35
0.025 0.075 0.35
0.05 0.075 0.35
0.075 0.075 0.35
0.1 0.075 0.35
0 0.1 0.35
0.025 0.1 0.35
0.05 0.1 0.35
0.075 0.1 0.35
0.1 0.1 0.35
0 0 0.375
0.025 0 0.375
0.05 0 0.375
0.075 0 0.375
0.1 0 0.375
0 0.025 0.375
0.025 0.025 0.375
0.05 0.025 0.375
0.075 0.025 0.375
0.1 0.025 0.375
0 0.05 0.375
0.025 0.05 0.375
0.05 0.05 0.375
0.075 0.05 0.375
0.1 0.05 0.375
0 0.075 0.375
0.025 0.075 0.375
0.05 0.075 0.375
0.075 0.075 0.375
0.1 0.075 0.375
0 0.1 0.375
0.025 0.1 0.375
0.05 0.1 0.375
0.075 0.1 0.375
0.1 0.1 0.375
0 0 0.4
0.025 0 0.4
0.05 0 0.4
0.075 0 0.4
0.1 0 0.4
0 0.025 0.4
0.025 0.025 0.4
0.05 0.025 0.4
0.075 0.025 0.4
0.1 0.025 0.4
0 0.05 0.4
0.025 0.05 0.4
0.05 0.05 0.4
0.075 0.05 0.4
0.1 0.05 0.4
0 0.075 0.4
0.025 0.075 0.4
0.05 0.075 0.4
0.075 0.075 0.4
0.1 0.075 0.4
0 0.1 0.4
0.025 0.1 0.4
0.05 0.1 0.4
0.075 0.1 0.4
0.1 0.1 0.4
0 0 0.425
0.025 0 0.425
0.05 0 0.425
0.075 0 0.425
0.1 0 0.425
0 0.025 0.425
0.025 0.025 0.425
0.05 0.025 0.425
0.075 0.025 0.425
0.1 0.025 0.425
0 0.05 0.425
0.025 0.05 0.425
0.05 0.05 0.425
0.075 0.05 0.425
0.1 0.05 0.425
0 0.075 0.425
0.025 0.075 0.425
0.05 0.075 0.425
0.075 0.075 0.425
0.1 0.075 0.425
0 0.1 0.425
0.025 0.1 0.425
0.05 0.1 0.425
0.075 0.1 0.425
0.1 0.1 0.425
0 0 0.45
0.025 0 0.45
0.05 0 0.45
0.075 0 0.45
0.1 0 0.45
0 0.025 0.45
0.025 0.025 0.45
0.05 0.025 0.45
0.075 0.025 0.45
0.1 0.025 0.45
0 0.05 0.45
0.025 0.05 0.45
0.05 0.05 0.45
0.075 0.05 0.45
0.1 0.05 0.45
0 0.075 0.45
0.025 0.075 0.45
0.05 0.075 0.45
0.075 0.075 0.45
0.1 0.075 0.45
0 0.1 0.45
0.025 0.1 0.45
0.05 0.1 0.45
0.075 0.1 0.45
0.1 0.1 0.45
0 0 0.475
0.025 0 0.475
0.05 0 0.475
0.075 0 0.475
0.1 0 0.475
0 0.025 0.475
0.025 0.025 0.475
0.05 0.025 0.475
0.075 0.025 0.475
0.1 0.025 0.475
0 0.05 0.475
0.025 0.05 0.475
0.05 0.05 0.475
0.075 0.05 0.475
0.1 0.05 0.475
0 0.075 0.475
0.025 0.075 0.475
0.05 0.075 0.475
0.075 0.075 0.475
0.1 0.075 0.475
0 0.1 0.475
0.025 0.1 0.475
0.05 0.1 0.475
0.075 0.1 0.475
0.1 0.1 0.475
0 0 0.5
0.025 0 0.5
0.05 0 0.5
0.075 0 0.5
0.1 0 0.5
0 0.025 0.5
0.025 0.025 0.5
0.05 0.025 0.5
0.075 0.025 0.5
0.1 0.025 0.5
0 0.05 0.5
0.025 0.05 0.5
0.05 0.05 0.5
0.075 0.05 0.5
0.1 0.05 0.5
0 0.075 0.5
0.025 0.075 0.5
0.05 0.075 0.5
0.075 0.075 0.5
0.1 0.075 0.5
0 0.1 0.5
0.025 0.1 0.5
0.05 0.1 0.5
0.075 0.1 0.5
0.1 0.1 0.5
0 0 0.525
0.025 0 0.525
0.05 0 0.525
0.075 0 0.525
0.1 0 0.525
0 0.025 0.525
0.025 0.025 0.525
0.05 0.025 0.525
0.075 0.025 0.525
0.1 0.025 0.525
0 0.05 0.525
0.025 0.05 0.525
0.05 0.05 0.525
0.075 0.05 0.525
0.1 0.05 0.525
0 0.075 0.525
0.025 0.075 0.525
0.05 0.075 0.525
0.075 0.075 0.525
0.1 0.075 0.525
0 0.1 0.525
0.025 0.1 0.525
0.05 0.1 0.525
0.075 0.1 0.525
0.1 0.1 0.525
0 0 0.55
0.025 0 0.55
0.05 0 0.55
0.075 0 0.55
0.1 0 0.55
0 0.025 0.55
0.025 0.025 0.55
0.05 0.025 0.55
0.075 0.025 0.55
0.1 0.025 0.55
0 0.05 0.55
0.025 0.05 0.55
0.05 0.05 0.55
0.075 0.05 0.55
0.1 0.05 0.55
0 0.075 0.55
0.025 0.075 0.55
0.05 0.075 0.55
0.075 0.075 0.55
0.1 0.075 0.55
0 0.1 0.55
0.025 0.1 0.55
0.05 0.1 0.55
0.075 0.1 0.55
0.1 0.1 0.55
0 0 0.575
0.025 0 0.575
0.05 0 0.575
0.075 0 0.575
0.1 0 0.575
0 0.025 0.575
0.025 0.025 0.575
0.05 0.025 0.575
0.075 0.025 0.575
0.1 0.025 0.575
0 0.05 0.575
0.025 0.05 0.575
0.05 0.05 0.575
0.075 0.05 0.575
0.1 0.05 0.575
0 0.075 0.575
0.025 0.075 0.575
0.05 0.075 0.575
0.075 0.075 0.575
0.1 0.075 0.575
0 0.1 0.575
0.025 0.1 0.575
0.05 0.1 0.575
0.075 0.1 0.575
0.1 0.1 0.575
0 0 0.6
0.025 0 0.6
0.05 0 0.6
0.075 0 0.6
0.1 0 0.6
0 0.025 0.6
0.025 0.025 0.6
0.05 0.025 0.6
0.075 0.025 0.6
0.1 0.025 0.6
0 0.05 0.6
0.025 0.05 0.6
0.05 0.05 0.6
0.075 0.05 0.6
0.1 0.05 0.6
0 0.075 0.6
0.025 0.075 0.6
0.05 0.075 0.6
0.075 0.075 0.6
0.1 0.075 0.6
0 0.1 0.6
0.025 0.1 0.6
0.05 0.1 0.6
0.075 0.1 0.6
0.1 0.1 0.6
0 0 0.625
0.025 0 0.625
0.05 0 0.625
0.075 0 0.625
0.1 0 0.625
0 0.025 0.625
0.025 0.025 0.625
0.05 0.025 0.625
0.075 0.025 0.625
0.1 0.025 0.625
0 0.05 0.625
0.025 0.05 0.625
0.05 0.05 0.625
0.075 0.05 0.625
0.1 0.05 0.625
0 0.075 0.625
0.025 0.075 0.625
0.05 0.075 0.625
0.075 0.075 0.625
0.1 0.075 0.625
0 0.1 0.625
0.025 0.1 0.625
0.05 0.1 0.625
0.075 0.1 0.625
0.1 0.1 0.625
0 0 0.65
0.025 0 0.65
0.05 0 0.65
0.075 0 0.65
0.1 0 0.65
0 0.025 0.65
0.025 0.025 0.65
0.05 0.025 0.65
0.075 0.025 0.65
0.1 0.025 0.65
0 0.05 0.65
0.025 0.05 0.65
0.05 0.05 0.65
0.075 0.05 0.65
0.1 0.05 0.65
0 0.075 0.65
0.025 0.075 0.65
0.05 0.075 0.65
0.075 0.075 0.65
0.1 0.075 0.65
0 0.1 0.65
0.025 0.1 0.65
0.05 0.1 0.65
0.075 0.1 0.65
0.1 0.1 0.65
0 0 0.675
0.025 0 0.675
0.05 0 0.675
0.075 0 0.675
0.1 0 0.675
[...]
<PointData Vectors="Displacement">
<DataArray type="Float32" Name="Displacement" NumberOfComponents="3" format="ascii">
0 0 0
0 0 0
0 0 0
0 0 0
0 0 0
0 0 0
0 0 0
0 0 0
0 0 0
0 0 0
0 0 0
0 0 0
0 0 0
0 0 0
0 0 0
0 0 0
0 0 0
0 0 0
0 0 0
0 0 0
0 0 0
0 0 0
0 0 0
0 0 0
0 0 0
4.22862e-10 0.00133967 1.3004e-09
1.82546e-10 0.00133967 1.29464e-09
4.76461e-11 0.00133967 1.32025e-09
-1.07862e-10 0.00133967 1.31617e-09
-2.68932e-10 0.00133967 1.29858e-09
4.43874e-10 0.00133967 1.29877e-09
1.96e-10 0.00133967 1.29409e-09
5.34868e-11 0.00133967 1.28895e-09
-8.88333e-11 0.00133967 1.3103e-09
-3.13176e-10 0.00133967 1.30206e-09
4.45566e-10 0.00133967 1.295e-09
1.88854e-10 0.00133967 1.30071e-09
5.26257e-11 0.00133967 1.29017e-09
-7.65276e-11 0.00133967 1.29505e-09
-3.29274e-10 0.00133967 1.31056e-09
4.61519e-10 0.00133967 1.30594e-09
1.96444e-10 0.00133967 1.30326e-09
6.1843e-11 0.00133967 1.31836e-09
-8.83367e-11 0.00133967 1.32589e-09
-3.51039e-10 0.00133967 1.31226e-09
4.66014e-10 0.00133967 1.31295e-09
2.13966e-10 0.00133967 1.32512e-09
6.27499e-11 0.00133967 1.33086e-09
-1.06894e-10 0.00133967 1.31401e-09
-3.27688e-10 0.00133967 1.35181e-09
5.14472e-10 0.0026788 2.59893e-09
2.92678e-10 0.0026788 2.61422e-09
1.36261e-10 0.0026788 2.62431e-09
-8.24635e-11 0.0026788 2.62065e-09
-3.16268e-10 0.0026788 2.59634e-09
5.49384e-10 0.0026788 2.63232e-09
3.20841e-10 0.0026788 2.63016e-09
1.07521e-10 0.0026788 2.64159e-09
-7.63236e-11 0.0026788 2.62253e-09
-3.16591e-10 0.0026788 2.64341e-09
5.46656e-10 0.0026788 2.64768e-09
3.28953e-10 0.0026788 2.62464e-09
1.11325e-10 0.0026788 2.62422e-09
-1.14344e-10 0.0026788 2.65828e-09
-2.70649e-10 0.0026788 2.6751e-09
6.42831e-10 0.0026788 2.64784e-09
3.11797e-10 0.0026788 2.64384e-09
1.20146e-10 0.0026788 2.65542e-09
-1.15041e-10 0.0026788 2.67091e-09
-3.42835e-10 0.0026788 2.63418e-09
6.33243e-10 0.0026788 2.68727e-09
3.67461e-10 0.0026788 2.62843e-09
1.16244e-10 0.0026788 2.69181e-09
-9.62351e-11 0.0026788 2.66156e-09
-3.96201e-10 0.0026788 2.65279e-09
5.15642e-10 0.00401687 4.01809e-09
3.67043e-10 0.00401687 3.92561e-09
2.09657e-10 0.00401687 3.94093e-09
-4.54085e-11 0.00401687 3.95528e-09
-1.8741e-10 0.00401687 3.91338e-09
5.48561e-10 0.00401687 3.9283e-09
3.72397e-10 0.00401687 3.95229e-09
2.04394e-10 0.00401687 3.93371e-09
-4.72844e-11 0.00401687 3.96597e-09
-1.67169e-10 0.00401687 3.93338e-09
6.1201e-10 0.00401687 3.97679e-09
3.68918e-10 0.00401687 3.93824e-09
1.79448e-10 0.00401687 3.95003e-09
-7.04992e-14 0.00401687 3.942e-09
-2.33495e-10 0.00401687 3.90431e-09
6.20519e-10 0.00401687 3.94976e-09
3.87834e-10 0.00401687 3.95676e-09
1.65385e-10 0.00401687 3.95533e-09
-3.70937e-11 0.00401687 3.92722e-09
-2.39114e-10 0.00401687 3.94693e-09
6.71837e-10 0.00401687 3.9531e-09
4.1958e-10 0.00401687 3.93154e-09
1.98835e-10 0.00401687 3.92292e-09
-7.48837e-11 0.00401687 3.92223e-09
-2.5829e-10 0.00401687 3.96654e-09
6.29289e-10 0.00535335 5.18706e-09
3.90767e-10 0.00535335 5.13757e-09
2.69944e-10 0.00535335 5.09465e-09
4.28832e-11 0.00535335 5.15123e-09
-5.77198e-11 0.00535335 5.18038e-09
5.70998e-10 0.00535335 5.15382e-09
3.71195e-10 0.00535335 5.12624e-09
2.41178e-10 0.00535335 5.06881e-09
7.46343e-11 0.00535335 5.13233e-09
-3.20005e-11 0.00535335 5.13209e-09
5.74486e-10 0.00535335 5.12049e-09
3.7756e-10 0.00535335 5.10058e-09
2.50792e-10 0.00535335 5.13418e-09
5.07621e-11 0.00535335 5.12314e-09
4.97952e-12 0.00535335 5.11798e-09
6.23545e-10 0.00535335 5.12482e-09
3.92677e-10 0.00535335 5.13922e-09
2.49347e-10 0.00535335 5.07639e-09
4.85367e-11 0.00535335 5.13232e-09
-7.65169e-11 0.00535335 5.08524e-09
5.27315e-10 0.00535335 5.13985e-09
4.6685e-10 0.00535335 5.16048e-09
1.9594e-10 0.00535335 5.06833e-09
9.17653e-11 0.00535335 5.08677e-09
-6.56701e-11 0.00535335 5.08038e-09
5.33696e-10 0.00668776 6.1738e-09
3.98457e-10 0.00668776 6.21602e-09
2.57457e-10 0.00668776 6.1249e-09
1.80904e-10 0.00668776 6.15722e-09
5.48956e-11 0.00668776 6.15356e-09
5.11025e-10 0.00668776 6.21627e-09
3.89897e-10 0.00668776 6.23148e-09
2.92812e-10 0.00668776 6.1893e-09
1.48376e-10 0.00668776 6.17002e-09
1.72322e-11 0.00668776 6.20799e-09
5.28773e-10 0.00668776 6.14479e-09
3.79157e-10 0.00668776 6.25945e-09
2.97342e-10 0.00668776 6.17824e-09
1.3951e-10 0.00668776 6.22065e-09
2.60738e-11 0.00668776 6.27995e-09
6.33601e-10 0.00668776 6.20842e-09
4.20609e-10 0.00668776 6.20769e-09
2.81619e-10 0.00668776 6.24978e-09
1.21757e-10 0.00668776 6.19989e-09
1.35056e-10 0.00668776 6.19849e-09
6.47304e-10 0.00668776 6.20556e-09
4.62351e-10 0.00668776 6.30716e-09
2.65237e-10 0.00668776 6.19901e-09
1.9317e-10 0.00668776 6.18222e-09
4.06535e-11 0.00668776 6.24367e-09
5.59865e-10 0.0080196 7.10603e-09
3.35132e-10 0.0080196 7.04312e-09
3.86986e-10 0.0080196 7.00668e-09
1.34051e-10 0.0080196 7.04314e-09
2.27923e-10 0.0080196 7.14479e-09
5.16348e-10 0.0080196 7.03007e-09
3.33448e-10 0.00801959 7.10698e-09
3.55876e-10 0.0080196 7.04452e-09
2.80331e-10 0.0080196 7.11222e-09
1.54357e-10 0.00801959 7.07582e-09
5.1404e-10 0.0080196 7.177e-09
4.16551e-10 0.0080196 7.10319e-09
3.12744e-10 0.00801959 7.12077e-09
3.13974e-10 0.00801959 7.08167e-09
1.60807e-10 0.00801959 7.07654e-09
5.71296e-10 0.00801959 7.11306e-09
4.6432e-10 0.00801959 7.17278e-09
3.71474e-10 0.00801959 7.14424e-09
2.36677e-10 0.00801959 7.13264e-09
2.28886e-10 0.00801959 7.1501e-09
3.81071e-10 0.00801959 7.12098e-09
4.96688e-10 0.00801959 7.01111e-09
3.85733e-10 0.00801959 7.28763e-09
2.11758e-10 0.00801959 7.14267e-09
3.54287e-10 0.00801959 7.01512e-09
3.78587e-10 0.00934837 7.80379e-09
3.54698e-10 0.00934837 7.86869e-09
4.60883e-10 0.00934837 7.78124e-09
4.82281e-10 0.00934837 7.57706e-09
3.63688e-10 0.00934837 7.78051e-09
4.14595e-10 0.00934837 7.78383e-09
4.27588e-10 0.00934837 7.74519e-09
4.35461e-10 0.00934837 7.83125e-09
4.3038e-10 0.00934837 7.76855e-09
3.86883e-10 0.00934837 7.72588e-09
5.79697e-10 0.00934837 7.84789e-09
4.17741e-10 0.00934837 7.88342e-09
3.9983e-10 0.00934837 7.83818e-09
4.21508e-10 0.00934837 7.79558e-09
3.52754e-10 0.00934837 7.73883e-09
5.16063e-10 0.00934837 7.88679e-09
5.09873e-10 0.00934837 7.79622e-09
4.04778e-10 0.00934837 7.83061e-09
4.16933e-10 0.00934837 7.8556e-09
3.20131e-10 0.00934837 7.83718e-09
5.21198e-10 0.00934837 7.81551e-09
5.62761e-10 0.00934837 7.89569e-09
5.77033e-10 0.00934837 7.81246e-09
3.73758e-10 0.00934837 7.91072e-09
3.50311e-10 0.00934837 7.90247e-09
4.85322e-10 0.0106736 8.2241e-09
4.83609e-10 0.0106736 8.40063e-09
5.14349e-10 0.0106736 8.24102e-09
4.67156e-10 0.0106736 8.37296e-09
7.51952e-10 0.0106736 8.19283e-09
4.83447e-10 0.0106736 8.3846e-09
4.96447e-10 0.0106736 8.44218e-09
5.55579e-10 0.0106736 8.3646e-09
4.35964e-10 0.0106736 8.33948e-09
8.62146e-10 0.0106736 8.22464e-09
4.70024e-10 0.0106736 8.30623e-09
5.18509e-10 0.0106736 8.32396e-09
6.29666e-10 0.0106736 8.33282e-09
4.21476e-10 0.0106736 8.29958e-09
7.53929e-10 0.0106736 8.30186e-09
5.63049e-10 0.0106736 8.29623e-09
5.61122e-10 0.0106736 8.33652e-09
6.51689e-10 0.0106736 8.22787e-09
5.21667e-10 0.0106736 8.38933e-09
4.33684e-10 0.0106736 8.2822e-09
7.92695e-10 0.0106736 8.39729e-09
4.14373e-10 0.0106736 8.32194e-09
6.06968e-10 0.0106736 8.29814e-09
5.17404e-10 0.0106736 8.29487e-09
5.83387e-10 0.0106736 8.29625e-09
6.59139e-10 0.0119949 8.49206e-09
6.56079e-10 0.0119949 8.3409e-09
6.69058e-10 0.0119949 8.56603e-09
6.14085e-10 0.0119949 8.4587e-09
9.18761e-10 0.0119949 8.45687e-09
7.68898e-10 0.0119949 8.39427e-09
6.3852e-10 0.0119949 8.4539e-09
6.17556e-10 0.0119949 8.48842e-09
6.73946e-10 0.0119949 8.45584e-09
7.19077e-10 0.0119949 8.52168e-09
6.2188e-10 0.0119949 8.44483e-09
6.42599e-10 0.0119949 8.50859e-09
7.31144e-10 0.0119949 8.41848e-09
6.82493e-10 0.0119949 8.48635e-09
7.19294e-10 0.0119949 8.59489e-09
6.41598e-10 0.0119949 8.32808e-09
7.07113e-10 0.0119949 8.46315e-09
7.99725e-10 0.0119949 8.53903e-09
7.60935e-10 0.0119949 8.59725e-09
7.94616e-10 0.0119949 8.44552e-09
6.59551e-10 0.0119949 8.4139e-09
7.7022e-10 0.0119949 8.25905e-09
7.6251e-10 0.0119949 8.50003e-09
6.31109e-10 0.0119949 8.36937e-09
5.73486e-10 0.0119949 8.39794e-09
6.97596e-10 0.0133117 8.46264e-09
8.35413e-10 0.0133117 8.50087e-09
8.8681e-10 0.0133117 8.27333e-09
1.01557e-09 0.0133117 8.40996e-09
1.08388e-09 0.0133117 8.54384e-09
6.04035e-10 0.0133117 8.33708e-09
8.0149e-10 0.0133117 8.33965e-09
9.08305e-10 0.0133117 8.29643e-09
9.38461e-10 0.0133117 8.3971e-09
1.11446e-09 0.0133117 8.28705e-09
6.50413e-10 0.0133117 8.2949e-09
7.94435e-10 0.0133117 8.37459e-09
8.53151e-10 0.0133117 8.38106e-09
9.35202e-10 0.0133117 8.3509e-09
1.16002e-09 0.0133117 8.25721e-09
6.88955e-10 0.0133117 8.2717e-09
8.51728e-10 0.0133117 8.2938e-09
1.00758e-09 0.0133117 8.40424e-09
8.91824e-10 0.0133117 8.18914e-09
8.51499e-10 0.0133117 8.34361e-09
7.26778e-10 0.0133117 8.30377e-09
8.50467e-10 0.0133117 8.20947e-09
1.12003e-09 0.0133117 8.15833e-09
6.79108e-10 0.0133117 8.33707e-09
1.00329e-09 0.0133117 8.24635e-09
1.09759e-09 0.0146236 8.19336e-09
9.79397e-10 0.0146236 8.21959e-09
1.17556e-09 0.0146236 8.18571e-09
1.08123e-09 0.0146236 8.28996e-09
1.25463e-09 0.0146236 8.34223e-09
7.99016e-10 0.0146236 8.16996e-09
1.02242e-09 0.0146236 8.15075e-09
1.11189e-09 0.0146236 7.93235e-09
1.14819e-09 0.0146236 8.11064e-09
1.30452e-09 0.0146236 8.12007e-09
7.23939e-10 0.0146236 8.07523e-09
1.01565e-09 0.0146236 7.99664e-09
1.03973e-09 0.0146236 8.02307e-09
1.07617e-09 0.0146236 7.86155e-09
1.45965e-09 0.0146236 8.04642e-09
7.67589e-10 0.0146236 8.0163e-09
9.40559e-10 0.0146236 7.99654e-09
1.08459e-09 0.0146236 7.87127e-09
1.20492e-09 0.0146236 7.95052e-09
1.31732e-09 0.0146236 7.95896e-09
5.20571e-10 0.0146236 8.01217e-09
1.08018e-09 0.0146236 8.33558e-09
1.17674e-09 0.0146236 7.74515e-09
1.52899e-09 0.0146236 7.77929e-09
8.99991e-10 0.0146236 8.10633e-09
1.1517e-09 0.0159303 7.43381e-09
1.19006e-09 0.0159303 7.65941e-09
1.44621e-09 0.0159303 7.81896e-09
1.40593e-09 0.0159303 7.453e-09
9.73874e-10 0.0159303 7.54434e-09
1.1998e-09 0.0159303 7.6456e-09
1.18522e-09 0.0159303 7.47968e-09
1.32259e-09 0.0159303 7.61602e-09
1.34207e-09 0.0159303 7.43273e-09
1.41493e-09 0.0159303 7.42189e-09
1.04913e-09 0.0159303 7.42426e-09
1.10103e-09 0.0159303 7.49783e-09
1.34947e-09 0.0159303 7.31235e-09
1.29839e-09 0.0159303 7.4485e-09
1.57751e-09 0.0159303 7.47361e-09
1.00296e-09 0.0159303 7.51782e-09
1.02796e-09 0.0159303 7.47005e-09
1.45662e-09 0.0159303 7.49187e-09
1.5107e-09 0.0159303 7.3067e-09
1.64565e-09 0.0159303 7.40914e-09
1.17685e-09 0.0159303 7.53769e-09
1.04551e-09 0.0159303 7.69309e-09
1.39874e-09 0.0159303 7.35467e-09
1.6726e-09 0.0159303 7.41836e-09
1.33819e-09 0.0159303 7.28211e-09
1.29502e-09 0.0172315 6.91111e-09
1.49318e-09 0.0172315 6.69669e-09
1.33178e-09 0.0172315 6.6576e-09
1.33235e-09 0.0172315 6.50555e-09
1.92423e-09 0.0172315 6.4533e-09
1.30941e-09 0.0172315 6.69878e-09
1.29148e-09 0.0172315 6.75753e-09
1.44822e-09 0.0172315 6.61855e-09
1.54904e-09 0.0172315 6.6404e-09
1.59467e-09 0.0172315 6.6094e-09
1.07637e-09 0.0172315 6.56505e-09
1.27556e-09 0.0172315 6.73916e-09
1.53798e-09 0.0172315 6.74771e-09
1.68399e-09 0.0172315 6.68343e-09
1.54359e-09 0.0172315 6.76419e-09
8.98858e-10 0.0172315 6.74562e-09
1.2797e-09 0.0172315 6.752e-09
1.60689e-09 0.0172315 6.94001e-09
1.67554e-09 0.0172315 6.78914e-09
2.11042e-09 0.0172315 6.65893e-09
8.86616e-10 0.0172315 6.82051e-09
1.15866e-09 0.0172315 6.96955e-09
1.51999e-09 0.0172315 7.23158e-09
1.88108e-09 0.0172315 6.84598e-09
2.32517e-09 0.0172315 6.51956e-09
1.91839e-09 0.0185267 5.8672e-09
1.40936e-09 0.0185267 5.68228e-09
1.54369e-09 0.0185267 5.58369e-09
1.68065e-09 0.0185267 5.51482e-09
1.3047e-09 0.0185267 5.76612e-09
1.65145e-09 0.0185267 5.80156e-09
1.46821e-09 0.0185267 5.64032e-09
1.55656e-09 0.0185267 5.66183e-09
1.66013e-09 0.0185267 5.51574e-09
1.89531e-09 0.0185267 5.76473e-09
1.05763e-09 0.0185267 5.69609e-09
1.5874e-09 0.0185267 5.7966e-09
1.80233e-09 0.0185267 5.99645e-09
1.77796e-09 0.0185267 5.68978e-09
1.71558e-09 0.0185267 5.74158e-09
1.03636e-09 0.0185267 5.94395e-09
1.55251e-09 0.0185267 6.08162e-09
1.95308e-09 0.0185267 5.91421e-09
1.91151e-09 0.0185267 5.84505e-09
1.96322e-09 0.0185267 5.8037e-09
1.17175e-09 0.0185267 6.21403e-09
1.45905e-09 0.0185267 5.9665e-09
1.89941e-09 0.0185267 6.2118e-09
1.98717e-09 0.0185267 5.92712e-09
2.29732e-09 0.0185267 6.03283e-09
8.12811e-10 0.0198158 4.54472e-09
1.75887e-09 0.0198158 4.34386e-09
1.65523e-09 0.0198158 4.57992e-09
1.78362e-09 0.0198158 4.51349e-09
1.75758e-09 0.0198158 4.65556e-09
1.44359e-09 0.0198158 4.64652e-09
1.58005e-09 0.0198158 4.77509e-09
1.85892e-09 0.0198158 4.64368e-09
1.85844e-09 0.0198158 4.72803e-09
1.80825e-09 0.0198158 4.49357e-09
1.34955e-09 0.0198158 4.89378e-09
1.64373e-09 0.0198158 4.84041e-09
1.87296e-09 0.0198158 4.72414e-09
1.92374e-09 0.0198158 4.64013e-09
2.40519e-09 0.0198158 4.5497e-09
1.59011e-09 0.0198158 4.947e-09
1.55476e-09 0.0198158 4.87549e-09
1.95944e-09 0.0198158 4.83602e-09
2.16687e-09 0.0198158 4.67493e-09
2.20393e-09 0.0198158 4.64513e-09
1.82624e-09 0.0198158 4.87621e-09
1.53501e-09 0.0198158 4.79851e-09
1.96237e-09 0.0198158 4.93598e-09
2.17406e-09 0.0198158 4.8237e-09
2.47672e-09 0.0198158 4.9295e-09
5.27683e-10 0.0210984 3.84713e-09
1.70122e-09 0.0210984 3.90539e-09
1.91435e-09 0.0210984 3.7372e-09
1.78147e-09 0.0210984 3.59101e-09
2.6108e-09 0.0210984 3.69288e-09
1.01532e-09 0.0210984 3.67279e-09
1.78328e-09 0.0210984 3.77526e-09
2.10615e-09 0.0210984 3.75929e-09
2.09267e-09 0.0210984 3.56633e-09
2.41118e-09 0.0210984 3.63223e-09
1.60754e-09 0.0210984 3.76528e-09
1.72245e-09 0.0210984 3.60432e-09
2.07051e-09 0.0210984 3.85427e-09
2.21815e-09 0.0210984 3.57519e-09
2.32228e-09 0.0210984 3.73646e-09
1.82944e-09 0.0210984 3.71125e-09
1.76659e-09 0.0210984 3.83179e-09
1.91374e-09 0.0210984 3.83175e-09
2.23263e-09 0.0210984 3.72752e-09
2.68015e-09 0.0210984 3.66778e-09
2.0718e-09 0.0210984 3.77572e-09
1.82024e-09 0.0210984 3.49359e-09
1.85095e-09 0.0210984 3.6279e-09
2.40987e-09 0.0210984 3.85636e-09
2.07281e-09 0.0210984 3.33654e-09
1.72235e-09 0.0223743 3.42635e-09
1.65412e-09 0.0223744 3.05709e-09
2.29424e-09 0.0223744 3.10791e-09
2.17361e-09 0.0223744 2.94515e-09
2.4342e-09 0.0223744 2.67447e-09
1.96955e-09 0.0223744 2.8533e-09
1.81158e-09 0.0223743 2.88332e-09
2.23537e-09 0.0223744 2.94498e-09
2.12433e-09 0.0223744 2.69676e-09
2.35866e-09 0.0223743 2.6431e-09
1.91236e-09 0.0223744 2.47406e-09
1.96772e-09 0.0223744 2.43159e-09
2.18113e-09 0.0223744 2.47032e-09
2.46863e-09 0.0223743 2.75464e-09
2.31453e-09 0.0223743 2.65201e-09
2.04555e-09 0.0223744 2.48552e-09
1.94526e-09 0.0223744 2.27752e-09
2.1716e-09 0.0223744 2.58588e-09
2.49091e-09 0.0223744 2.40169e-09
2.1969e-09 0.0223744 2.56556e-09
2.4873e-09 0.0223744 2.4242e-09
1.69605e-09 0.0223744 2.689e-09
2.15643e-09 0.0223743 2.59839e-09
2.36429e-09 0.0223744 2.6642e-09
2.64809e-09 0.0223744 2.57397e-09
2.09872e-09 0.0236435 1.8636e-09
1.91905e-09 0.0236435 2.03344e-09
2.12189e-09 0.0236435 1.82323e-09
2.37845e-09 0.0236435 1.54991e-09
2.81645e-09 0.0236435 1.55325e-09
1.97167e-09 0.0236435 1.62734e-09
2.05798e-09 0.0236435 1.65731e-09
2.4244e-09 0.0236435 1.76483e-09
2.34795e-09 0.0236435 1.60499e-09
2.88656e-09 0.0236435 1.33801e-09
1.67102e-09 0.0236435 1.55857e-09
1.99698e-09 0.0236435 1.26215e-09
2.41677e-09 0.0236435 1.34963e-09
2.7099e-09 0.0236435 1.4405e-09
2.81638e-09 0.0236435 1.55126e-09
2.0185e-09 0.0236435 1.18698e-09
2.05588e-09 0.0236435 1.3422e-09
2.34592e-09 0.0236435 1.42282e-09
2.81457e-09 0.0236435 1.30549e-09
3.05144e-09 0.0236435 1.47835e-09
1.654e-09 0.0236435 1.29767e-09
2.18811e-09 0.0236435 1.32027e-09
2.38056e-09 0.0236435 1.17283e-09
2.7596e-09 0.0236435 1.4501e-09
3.14232e-09 0.0236435 1.63738e-09
1.72507e-09 0.0249056 5.52873e-10
2.28773e-09 0.0249056 5.93391e-10
2.31599e-09 0.0249056 2.42201e-10
2.71672e-09 0.0249056 6.33222e-11
3.41862e-09 0.0249056 3.98251e-10
1.66683e-09 0.0249056 6.99529e-10
2.26224e-09 0.0249056 4.84288e-10
2.58219e-09 0.0249056 4.65428e-10
2.79626e-09 0.0249056 4.49166e-10
3.15136e-09 0.0249056 1.95414e-10
1.96756e-09 0.0249056 3.18381e-10
2.25073e-09 0.0249056 4.42102e-10
2.6343e-09 0.0249056 4.21932e-10
2.78859e-09 0.0249056 3.19881e-10
3.29123e-09 0.0249056 2.7684e-10
1.95103e-09 0.0249056 3.44598e-10
2.18261e-09 0.0249056 4.47587e-10
2.59035e-09 0.0249056 5.93051e-10
2.95347e-09 0.0249056 5.15421e-10
3.47562e-09 0.0249056 3.79487e-10
1.16958e-09 0.0249056 5.57953e-10
2.31527e-09 0.0249056 -3.56115e-11
2.85925e-09 0.0249056 5.59583e-10
2.90492e-09 0.0249056 2.46484e-10
3.86093e-09 0.0249056 2.71766e-10
1.57119e-09 0.0261607 1.20366e-10
2.33724e-09 0.0261607 -1.39041e-10
2.90766e-09 0.0261607 -8.26855e-11
2.63455e-09 0.0261607 -7.72307e-11
3.27174e-09 0.0261607 -5.7989e-10
2.09821e-09 0.0261607 -2.71982e-10
2.37287e-09 0.0261607 -1.90238e-10
2.75319e-09 0.0261607 -2.82691e-10
2.82999e-09 0.0261607 -2.9679e-10
3.25498e-09 0.0261607 -3.82088e-10
2.05475e-09 0.0261607 -4.35401e-10
2.27451e-09 0.0261607 -3.54129e-10
2.79594e-09 0.0261607 -2.47895e-10
3.12914e-09 0.0261607 -4.69255e-10
2.97364e-09 0.0261607 -7.47451e-10
1.87353e-09 0.0261607 -6.25234e-10
2.33126e-09 0.0261607 -2.799e-10
2.63818e-09 0.0261607 -2.17915e-10
2.92706e-09 0.0261607 -4.19639e-10
3.45121e-09 0.0261607 -4.00467e-10
1.93583e-09 0.0261607 -1.60471e-10
2.27326e-09 0.0261607 -1.94901e-10
2.73534e-09 0.0261607 -1.33134e-10
2.88213e-09 0.0261607 -4.16495e-10
3.39804e-09 0.0261607 -2.12365e-10
2.81262e-09 0.0274087 -6.47851e-10
2.29862e-09 0.0274087 -5.85218e-10
3.04065e-09 0.0274087 -6.88881e-10
2.90255e-09 0.0274087 -1.07534e-09
2.99241e-09 0.0274087 -7.49131e-10
1.9685e-09 0.0274087 -8.9159e-10
2.49212e-09 0.0274087 -8.99777e-10
2.9515e-09 0.0274087 -9.27056e-10
2.87179e-09 0.0274087 -9.05563e-10
3.20603e-09 0.0274087 -1.03121e-09
1.6714e-09 0.0274087 -9.11992e-10
2.34712e-09 0.0274087 -9.96292e-10
2.7514e-09 0.0274087 -9.33774e-10
2.9651e-09 0.0274087 -9.62352e-10
3.40692e-09 0.0274087 -1.07265e-09
1.68213e-09 0.0274087 -1.0091e-09
2.18589e-09 0.0274087 -8.81227e-10
2.61371e-09 0.0274087 -6.79258e-10
2.96804e-09 0.0274087 -1.12703e-09
3.60012e-09 0.0274087 -1.00311e-09
2.13668e-09 0.0274087 -7.95262e-10
2.16227e-09 0.0274087 -7.50061e-10
2.52893e-09 0.0274087 -1.10079e-09
3.0497e-09 0.0274087 -5.90571e-10
3.16983e-09 0.0274087 -9.62722e-10
2.21168e-09 0.0286495 -1.48545e-09
2.94242e-09 0.0286495 -1.31162e-09
2.66628e-09 0.0286495 -1.74321e-09
3.08619e-09 0.0286495 -1.49243e-09
3.42769e-09 0.0286495 -1.53244e-09
2.11768e-09 0.0286495 -1.10054e-09
2.53149e-09 0.0286495 -1.44623e-09
2.96666e-09 0.0286495 -1.57481e-09
3.06741e-09 0.0286495 -1.49067e-09
3.24017e-09 0.0286495 -1.24447e-09
1.75214e-09 0.0286495 -1.34043e-09
2.28026e-09 0.0286495 -1.23485e-09
2.74122e-09 0.0286495 -1.08971e-09
2.99187e-09 0.0286495 -1.32804e-09
3.73437e-09 0.0286495 -1.34263e-09
1.89337e-09 0.0286495 -1.45249e-09
2.33589e-09 0.0286495 -1.23698e-09
2.56975e-09 0.0286495 -1.18703e-09
2.98647e-09 0.0286495 -1.26726e-09
3.63219e-09 0.0286495 -1.18037e-09
1.94557e-09 0.0286495 -6.32558e-10
2.21186e-09 0.0286495 -1.19252e-09
2.45076e-09 0.0286495 -9.74438e-10
2.69347e-09 0.0286495 -1.34336e-09
3.41404e-09 0.0286495 -1.30735e-09
2.15015e-09 0.0298831 -1.40389e-09
2.28924e-09 0.0298831 -2.34977e-09
2.70359e-09 0.0298831 -1.7663e-09
3.19955e-09 0.0298831 -2.30136e-09
3.60211e-09 0.0298831 -1.98949e-09
2.13724e-09 0.0298831 -1.89682e-09
2.34707e-09 0.0298831 -1.48364e-09
2.78625e-09 0.0298831 -1.7252e-09
2.89661e-09 0.0298831 -1.74918e-09
3.39779e-09 0.0298831 -1.90702e-09
1.87098e-09 0.0298831 -1.66177e-09
2.34206e-09 0.0298831 -1.64337e-09
2.85367e-09 0.0298831 -1.42919e-09
2.74796e-09 0.0298831 -1.45008e-09
3.61336e-09 0.0298831 -1.73975e-09
2.25955e-09 0.0298831 -1.65161e-09
2.24834e-09 0.0298831 -1.63216e-09
2.602e-09 0.0298831 -1.41976e-09
2.8195e-09 0.0298831 -1.67696e-09
3.6748e-09 0.0298831 -1.426e-09
2.07327e-09 0.0298831 -1.68786e-09
2.49975e-09 0.0298831 -1.48509e-09
2.61307e-09 0.0298831 -1.86826e-09
2.98324e-09 0.0298831 -1.14062e-09
3.27137e-09 0.0298831 -1.81537e-09