<?xml version="1.0"?>
<VTKFile type="UnstructuredGrid" version="0.1" byte_order="LittleEndian">
<UnstructuredGrid>
<Piece NumberOfPoints="1025" NumberOfCells="640">
<Points>
<DataArray type="Float32" NumberOfComponents="3" format="ascii">
0 0 0
0.025 0 0
0.05 0 0
0.075 0 0
0.1 0 0
0 0.025 0
0.025 0.025 0
0.05 0.025 0
0.075 0.025 0
0.1 0.025 0
0 0.05 0
0.025 0.05 0
0.05 0.05 0
0.075 0.05 0
0.1 0.05 0
0 0.075 0
0.025 0.075 0
0.05 0.075 0
0.075 0.075 0
0.1 0.075 0
0 0.1 0
0.025 0.1 0
0.05 0.1 0
0.075 0.1 0
0.1 0.1 0
0 0 0.025
0.025 0 0.025
0.05 0 0.025
0.075 0 0.025
0.1 0 0.025
0 0.025 0.025
0.025 0.025 0.025
0.05 0.025 0.025
0.075 0.025 0.025
0.1 0.025 0.025
0 0.05 0.025
0.025 0.05 0.025
0.05 0.05 0.025
0.075 0.05 0.025
0.1 0.05 0.025
0 0.075 0.025
0.025 0.075 0.025
0.05 0.075 0.025
0.075 0.075 0.025
0.1 0.075 0.025
0 0.1 0.025
0.025 0.1 0.025
0.05 0.1 0.025
0.075 0.1 0.025
0.1 0.1 0.025
0 0 0.05
0.025 0 0.05
0.05 0 0.05
0.075 0 0.05
0.1 0 0.05
0 0.025 0.05
0.025 0.025 0.05
0.05 0.025 0.05
0.075 0.025 0.05
0.1 0.025 0.05
0 0.05 0.05
0.025 0.05 0.05
0.05 0.05 0.05
0.075 0.05 0.05
0.1 0.05 0.05
0 0.075 0.05
0.025 0.075 0.05
0.05 0.075 0.05
0.075 0.075 0.05
0.1 0.075 0.05
0 0.1 0.05
0.025 0.1 0.05
0.05 0.1 0.05
0.075 0.1 0.05
0.1 0.1 0.05
0 0 0.075
0.025 0 0.075
0.05 0 0.075
0.075 0 0.075
0.1 0 0.075
0 0.025 0.075
0.025 0.025 0.075
0.05 0.025 0.075
0.075 0.025 0.075
0.1 0.025 0.075
0 0.05 0.075
0.025 0.05 0.075
0.05 0.05 0.075
0.075 0.05 0.075
0.1 0.05 0.075
0 0.075 0.075
0.025 0.075 0.075
0.05 0.075 0.075
0.075 0.075 0.075
0.1 0.075 0.075
0 0.1 0.075
0.025 0.1 0.075
0.05 0.1 0.075
0.075 0.1 0.075
0.1 0.1 0.075
0 0 0.1
0.025 0 0.1
0.05 0 0.1
0.075 0 0.1
0.1 0 0.1
0 0.025 0.1
0.025 0.025 0.1
0.05 0.025 0.1
0.075 0.025 0.1
0.1 0.025 0.1
0 0.05 0.1
0.025 0.05 0.1
0.05 0.05 0.1
0.075 0.05 0.1
0.1 0.05 0.1
0 0.075 0.1
0.025 0.075 0.1
0.05 0.075 0.1
0.075 0.075 0.1
0.1 0.075 0.1
0 0.1 0.1
0.025 0.1 0.1
0.05 0.1 0.1
0.075 0.1 0.1
0.1 0.1 0.1
0 0 0.125
0.025 0 0.125
0.05 0 0.125
0.075 0 0.125
0.1 0 0.125
0 0.025 0.125
0.025 0.025 0.125
0.05 0.025 0.125
0.075 0.025 0.125
0.1 0.025 0.125
0 0.05 0.125
0.025 0.05 0.125
0.05 0.05 0.125
0.075 0.05 0.125
0.1 0.05 0.125
0 0.075 0.125
0.025 0.075 0.125
0.05 0.075 0.125
0.075 0.075 0.125
0.1 0.075 0.125
0 0.1 0.125
0.025 0.1 0.125
0.05 0.1 0.125
0.075 0.1 0.125
0.1 0.1 0.125
0 0 0.15
0.025 0 0.15
0.05 0 0.15
0.075 0 0.15
0.1 0 0.15
0 0.025 0.15
0.025 0.025 0.15
0.05 0.025 0.15
0.075 0.025 0.15
0.1 0.025 0.15
0 0.05 0.15
0.025 0.05 0.15
0.05 0.05 0.15
0.075 0.05 0.15
0.1 0.05 0.15
0 0.075 0.15
0.025 0.075 0.15
0.05 0.075 0.15
0.075 0.075 0.15
0.1 0.075 0.15
0 0.1 0.15
0.025 0.1 0.15
0.05 0.1 0.15
0.075 0.1 0.15
0.1 0.1 0.15
0 0 0.175
0.025 0 0.175
0.05 0 0.175
0.075 0 0.175
0.1 0 0.175
0 0.025 0.175
0.025 0.025 0.175
0.05 0.025 0.175
0.075 0.025 0.175
0.1 0.025 0.175
0 0.05 0.175
0.025 0.05 0.175
0.05 0.05 0.175
0.075 0.05 0.175
0.1 0.05 0.175
0 0.075 0.175
0.025 0.075 0.175
0.05 0.075 0.175
0.075 0.075 0.175
0.1 0.075 0.175
0 0.1 0.175
0.025 0.1 0.175
0.05 0.1 0.175
0.075 0.1 0.175
0.1 0.1 0.175
0 0 0.2
0.025 0 0.2
0.05 0 0.2
0.075 0 0.2
0.1 0 0.2
0 0.025 0.2
0.025 0.025 0.2
0.05 0.025 0.2
0.075 0.025 0.2
0.1 0.025 0.2
0 0.05 0.2
0.025 0.05 0.2
0.05 0.05 0.2
0.075 0.05 0.2
0.1 0.05 0.2
0 0.075 0.2
0.025 0.075 0.2
0.05 0.075 0.2
0.075 0.075 0.2
0.1 0.075 0.2
0 0.1 0.2
0.025 0.1 0.2
0.05 0.1 0.2
0.075 0.1 0.2
0.1 0.1 0.2
0 0 0.225
0.025 0 0.225
0.05 0 0.225
0.075 0 0.225
0.1 0 0.225
0 0.025 0.225
0.025 0.025 0.225
0.05 0.025 0.225
0.075 0.025 0.225
0.1 0.025 0.225
0 0.05 0.225
0.025 0.05 0.225
0.05 0.05 0.225
0.075 0.05 0.225
0.1 0.05 0.225
0 0.075 0.225
0.025 0.075 0.225
0.05 0.075 0.225
0.075 0.075 0.225
0.1 0.075 0.225
0 0.1 0.225
0.025 0.1 0.225
0.05 0.1 0.225
0.075 0.1 0.225
0.1 0.1 0.225
0 0 0.25
0.025 0 0.25
0.05 0 0.25
0.075 0 0.25
0.1 0 0.25
0 0.025 0.25
0.025 0.025 0.25
0.05 0.025 0.25
0.075 0.025 0.25
0.1 0.025 0.25
0 0.05 0.25
0.025 0.05 0.25
0.05 0.05 0.25
0.075 0.05 0.25
0.1 0.05 0.25
0 0.075 0.25
0.025 0.075 0.25
0.05 0.075 0.25
0.075 0.075 0.25
0.1 0.075 0.25
0 0.1 0.25
0.025 0.1 0.25
0.05 0.1 0.25
0.075 0.1 0.25
0.1 0.1 0.25
0 0 0.275
0.025 0 0.275
0.05 0 0.275
0.075 0 0.275
0.1 0 0.275
0 0.025 0.275
0.025 0.025 0.275
0.05 0.025 0.275
0.075 0.025 0.275
0.1 0.025 0.275
0 0.05 0.275
0.025 0.05 0.275
0.05 0.05 0.275
0.075 0.05 0.275
0.1 0.05 0.275
0 0.075 0.275
0.025 0.075 0.275
0.05 0.075 0.275
0.075 0.075 0.275
0.1 0.075 0.275
0 0.1 0.275
0.025 0.1 0.275
0.05 0.1 0.275
0.075 0.1 0.275
0.1 0.1 0.275
0 0 0.3
0.025 0 0.3
0.05 0 0.3
0.075 0 0.3
0.1 0 0.3
0 0.025 0.3
0.025 0.025 0.3
0.05 0.025 0.3
0.075 0.025 0.3
0.1 0.025 0.3
0 0.05 0.3
0.025 0.05 0.3
0.05 0.05 0.3
0.075 0.05 0.3
0.1 0.05 0.3
0 0.075 0.3
0.025 0.075 0.3
0.05 0.075 0.3
0.075 0.075 0.3
0.1 0.075 0.3
0 0.1 0.3
0.025 0.1 0.3
0.05 0.1 0.3
0.075 0.1 0.3
0.1 0.1 0.3
0 0 0.325
0.025 0 0.325
0.05 0 0.325
0.075 0 0.325
0.1 0 0.325
0 0.025 0.325
0.025 0.025 0.325
0.05 0.025 0.325
0.075 0.025 0.325
0.1 0.025 0.325
0 0.05 0.325
0.025 0.05 0.325
0.05 0.05 0.325
0.075 0.05 0.325
0.1 0.05 0.325
0 0.075 0.325
0.025 0.075 0.325
0.05 0.075 0.325
0.075 0.075 0.325
0.1 0.075 0.325
0 0.1 0.325
0.025 0.1 0.325
0.05 0.1 0.325
0.075 0.1 0.325
0.1 0.1 0.325
0 0 0.35
0.025 0 0.35
0.05 0 0.35
0.075 0 0.35
0.1 0 0.35
0 0.025 0.35
0.025 0.025 0.35
0.05 0.025 0.35
0.075 0.025 0.35
0.1 0.025 0.35
0 0.05 0.35
0.025 0.05 0.35
0.05 0.05 0.35
0.075 0.05 0.35
0.1 0.05 0.35
0 0.075 0.35
0.025 0.075 0.35
0.05 0.075 0.35
0.075 0.075 0.35
0.1 0.075 0.35
0 0.1 0.35
0.025 0.1 0.35
0.05 0.1 0.35
0.075 0.1 0.35
0.1 0.1 0.35
0 0 0.375
0.025 0 0.375
0.05 0 0.375
0.075 0 0.375
0.1 0 0.375
0 0.025 0.375
0.025 0.025 0.375
0.05 0.025 0.375
0.075 0.025 0.375
0.1 0.025 0.375
0 0.05 0.375
0.025 0.05 0.375
0.05 0.05 0.375
0.075 0.05 0.375
0.1 0.05 0.375
0 0.075 0.375
0.025 0.075 0.375
0.05 0.075 0.375
0.075 0.075 0.375
0.1 0.075 0.375
0 0.1 0.375
0.025 0.1 0.375
0.05 0.1 0.375
0.075 0.1 0.375
0.1 0.1 0.375
0 0 0.4
0.025 0 0.4
0.05 0 0.4
0.075 0 0.4
0.1 0 0.4
0 0.025 0.4
0.025 0.025 0.4
0.05 0.025 0.4
0.075 0.025 0.4
0.1 0.025 0.4
0 0.05 0.4
0.025 0.05 0.4
0.05 0.05 0.4
0.075 0.05 0.4
0.1 0.05 0.4
0 0.075 0.4
0.025 0.075 0.4
0.05 0.075 0.4
0.075 0.075 0.4
0.1 0.075 0.4
0 0.1 0.4
0.025 0.1 0.4
0.05 0.1 0.4
0.075 0.1 0.4
0.1 0.1 0.4
0 0 0.425
0.025 0 0.425
0.05 0 0.425
0.075 0 0.425
0.1 0 0.425
0 0.025 0.425
0.025 0.025 0.425
0.05 0.025 0.425
0.075 0.025 0.425
0.1 0.025 0.425
0 0.05 0.425
0.025 0.05 0.425
0.05 0.05 0.425
0.075 0.05 0.425
0.1 0.05 0.425
0 0.075 0.425
0.025 0.075 0.425
0.05 0.075 0.425
0.075 0.075 0.425
0.1 0.075 0.425
0 0.1 0.425
0.025 0.1 0.425
0.05 0.1 0.425
0.075 0.1 0.425
0.1 0.1 0.425
0 0 0.45
0.025 0 0.45
0.05 0 0.45
0.075 0 0.45
0.1 0 0.45
0 0.025 0.45
0.025 0.025 0.45
0.05 0.025 0.45
0.075 0.025 0.45
0.1 0.025 0.45
0 0.05 0.45
0.025 0.05 0.45
0.05 0.05 0.45
0.075 0.05 0.45
0.1 0.05 0.45
0 0.075 0.45
0.025 0.075 0.45
0.05 0.075 0.45
0.075 0.075 0.45
0.1 0.075 0.45
0 0.1 0.45
0.025 0.1 0.45
0.05 0.1 0.45
0.075 0.1 0.45
0.1 0.1 0.45
0 0 0.475
0.025 0 0.475
0.05 0 0.475
0.075 0 0.475
0.1 0 0.475
0 0.025 0.475
0.025 0.025 0.475
0.05 0.025 0.475
0.075 0.025 0.475
0.1 0.025 0.475
0 0.05 0.475
0.025 0.05 0.475
0.05 0.05 0.475
0.075 0.05 0.475
0.1 0.05 0.475
0 0.075 0.475
0.025 0.075 0.475
0.05 0.075 0.475
0.075 0.075 0.475
0.1 0.075 0.475
0 0.1 0.475
0.025 0.1 0.475
0.05 0.1 0.475
0.075 0.1 0.475
0.1 0.1 0.475
0 0 0.5
0.025 0 0.5
0.05 0 0.5
0.075 0 0.5
0.1 0 0.5
0 0.025 0.5
0.025 0.025 0.5
0.05 0.025 0.5
0.075 0.025 0.5
0.1 0.025 0.5
0 0.05 0.5
0.025 0.05 0.5
0.05 0.05 0.5
0.075 0.05 0.5
0.1 0.05 0.5
0 0.075 0.5
0.025 0.075 0.5
0.05 0.075 0.5
0.075 0.075 0.5
0.1 0.075 0.5
0 0.1 0.5
0.025 0.1 0.5
0.05 0.1 0.5
0.075 0.1 0.5
0.1 0.1 0.5
0 0 0.525
0.025 0 0.525
0.05 0 0.525
0.075 0 0.525
0.1 0 0.525
0 0.025 0.525
0.025 0.025 0.525
0.05 0.025 0.525
0.075 0.025 0.525
0.1 0.025 0.525
0 0.05 0.525
0.025 0.05 0.525
0.05 0.05 0.525
0.075 0.05 0.525
0.1 0.05 0.525
0 0.075 0.525
0.025 0.075 0.525
0.05 0.075 0.525
0.075 0.075 0.525
0.1 0.075 0.525
0 0.1 0.525
0.025 0.1 0.525
0.05 0.1 0.525
0.075 0.1 0.525
0.1 0.1 0.525
0 0 0.55
0.025 0 0.55
0.05 0 0.55
0.075 0 0.55
0.1 0 0.55
0 0.025 0.55
0.025 0.025 0.55
0.05 0.025 0.55
0.075 0.025 0.55
0.1 0.025 0.55
0 0.05 0.55
0.025 0.05 0.55
0.05 0.05 0.55
0.075 0.05 0.55
0.1 0.05 0.55
0 0.075 0.55
0.025 0.075 0.55
0.05 0.075 0.55
0.075 0.075 0.55
0.1 0.075 0.55
0 0.1 0.55
0.025 0.1 0.55
0.05 0.1 0.55
0.075 0.1 0.55
0.1 0.1 0.55
0 0 0.575
0.025 0 0.575
0.05 0 0.575
0.075 0 0.575
0.1 0 0.575
0 0.025 0.575
0.025 0.025 0.575
0.05 0.025 0.575
0.075 0.025 0.575
0.1 0.025 0.575
0 0.05 0.575
0.025 0.05 0.575
0.05 0.05 0.575
0.075 0.05 0.575
0.1 0.05 0.575
0 0.075 0.575
0.025 0.075 0.575
0.05 0.075 0.575
0.075 0.075 0.575
0.1 0.075 0.575
0 0.1 0.575
0.025 0.1 0.575
0.05 0.1 0.575
0.075 0.1 0.575
0.1 0.1 0.575
0 0 0.6
0.025 0 0.6
0.05 0 0.6
0.075 0 0.6
0.1 0 0.6
0 0.025 0.6
0.025 0.025 0.6
0.05 0.025 0.6
0.075 0.025 0.6
0.1 0.025 0.6
0 0.05 0.6
0.025 0.05 0.6
0.05 0.05 0.6
0.075 0.05 0.6
0.1 0.05 0.6
0 0.075 0.6
0.025 0.075 0.6
0.05 0.075 0.6
0.075 0.075 0.6
0.1 0.075 0.6
0 0.1 0.6
0.025 0.1 0.6
0.05 0.1 0.6
0.075 0.1 0.6
0.1 0.1 0.6
0 0 0.625
0.025 0 0.625
0.05 0 0.625
0.075 0 0.625
0.1 0 0.625
0 0.025 0.625
0.025 0.025 0.625
0.05 0.025 0.625
0.075 0.025 0.625
0.1 0.025 0.625
0 0.05 0.625
0.025 0.05 0.625
0.05 0.05 0.625
0.075 0.05 0.625
0.1 0.05 0.625
0 0.075 0.625
0.025 0.075 0.625
0.05 0.075 0.625
0.075 0.075 0.625
0.1 0.075 0.625
0 0.1 0.625
0.025 0.1 0.625
0.05 0.1 0.625
0.075 0.1 0.625
0.1 0.1 0.625
0 0 0.65
0.025 0 0.65
0.05 0 0.65
0.075 0 0.65
0.1 0 0.65
0 0.025 0.65
0.025 0.025 0.65
0.05 0.025 0.65
0.075 0.025 0.65
0.1 0.025 0.65
0 0.05 0.65
0.025 0.05 0.65
0.05 0.05 0.65
0.075 0.05 0.65
0.1 0.05 0.65
0 0.075 0.65
0.025 0.075 0.65
0.05 0.075 0.65
0.075 0.075 0.65
0.1 0.075 0.65
0 0.1 0.65
0.025 0.1 0.65
0.05 0.1 0.65
0.075 0.1 0.65
0.1 0.1 0.65
0 0 0.675
0.025 0 0.675
0.05 0 0.675
0.075 0 0.675
0.1 0 0.675
[...]
<PointData Vectors="Displacement">
<DataArray type="Float32" Name="Displacement" NumberOfComponents="3" format="ascii">
0 0 0
0 0 0
0 0 0
0 0 0
0 0 0
0 0 0
0 0 0
0 0 0
0 0 0
0 0 0
0 0 0
0 0 0
0 0 0
0 0 0
0 0 0
0 0 0
0 0 0
0 0 0
0 0 0
0 0 0
0 0 0
0 0 0
0 0 0
0 0 0
0 0 0
2.13449e-10 0.00105425 1.49144e-10
1.65674e-10 0.00105425 1.48272e-10
1.62855e-10 0.00105425 1.38749e-10
1.3803e-10 0.00105425 1.42477e-10
1.51048e-10 0.00105425 1.52955e-10
1.81154e-10 0.00105425 1.51847e-10
1.71473e-10 0.00105425 1.35844e-10
1.58984e-10 0.00105425 1.40996e-10
1.46291e-10 0.00105425 1.54847e-10
1.42945e-10 0.00105425 1.41574e-10
1.71148e-10 0.00105425 1.3993e-10
1.69101e-10 0.00105425 1.38723e-10
1.58773e-10 0.00105425 1.33977e-10
1.57531e-10 0.00105425 1.44394e-10
1.44839e-10 0.00105425 1.54213e-10
2.1072e-10 0.00105425 1.39279e-10
1.67728e-10 0.00105425 1.40924e-10
1.67853e-10 0.00105425 1.54575e-10
1.46479e-10 0.00105425 1.5857e-10
1.14043e-10 0.00105425 1.55834e-10
2.43185e-10 0.00105425 1.47619e-10
1.83636e-10 0.00105425 1.59237e-10
1.69942e-10 0.00105425 1.63002e-10
1.35691e-10 0.00105425 1.73003e-10
1.09491e-10 0.00105425 1.94808e-10
3.74746e-10 0.00210956 2.59554e-10
3.12726e-10 0.00210956 3.24623e-10
3.23878e-10 0.00210956 2.74222e-10
3.06921e-10 0.00210956 2.95732e-10
3.2287e-10 0.00210956 2.75435e-10
3.4524e-10 0.00210956 2.82022e-10
3.31443e-10 0.00210956 3.04905e-10
3.21404e-10 0.00210956 2.99593e-10
3.0935e-10 0.00210956 2.98003e-10
3.08163e-10 0.00210956 2.93427e-10
3.43991e-10 0.00210956 2.849e-10
3.31119e-10 0.00210956 2.9819e-10
3.20099e-10 0.00210956 2.91994e-10
2.92252e-10 0.00210956 3.11835e-10
3.10064e-10 0.00210956 3.03678e-10
3.79932e-10 0.00210956 2.93351e-10
3.29958e-10 0.00210956 2.66046e-10
3.33857e-10 0.00210956 3.11683e-10
2.83479e-10 0.00210956 3.1153e-10
2.92445e-10 0.00210956 3.00805e-10
4.08257e-10 0.00210956 2.40988e-10
3.40374e-10 0.00210956 3.00876e-10
3.01805e-10 0.00210956 2.98135e-10
3.01656e-10 0.00210956 3.57441e-10
2.0629e-10 0.00210956 3.00987e-10
5.1132e-10 0.00316713 4.22e-10
4.94595e-10 0.00316713 4.1398e-10
4.48801e-10 0.00316713 4.95692e-10
4.53599e-10 0.00316713 4.57099e-10
5.04243e-10 0.00316713 4.87931e-10
5.00314e-10 0.00316713 4.26439e-10
4.79138e-10 0.00316713 4.20175e-10
4.68326e-10 0.00316713 4.3956e-10
4.51543e-10 0.00316713 4.73176e-10
5.14507e-10 0.00316713 4.49494e-10
5.28389e-10 0.00316713 4.42097e-10
4.68636e-10 0.00316713 4.31731e-10
4.64078e-10 0.00316713 4.67017e-10
4.73812e-10 0.00316713 4.57857e-10
4.72983e-10 0.00316713 4.78008e-10
5.56392e-10 0.00316713 4.17223e-10
5.01784e-10 0.00316713 4.2883e-10
4.75123e-10 0.00316713 4.47288e-10
4.41035e-10 0.00316713 4.41167e-10
4.25614e-10 0.00316713 4.54964e-10
4.93689e-10 0.00316713 4.1526e-10
5.20341e-10 0.00316713 4.40276e-10
5.12667e-10 0.00316713 4.08239e-10
4.38165e-10 0.00316713 4.5954e-10
3.84422e-10 0.00316713 4.39441e-10
7.21127e-10 0.00422836 5.49593e-10
6.35587e-10 0.00422836 5.59687e-10
6.25594e-10 0.00422836 5.83765e-10
6.11895e-10 0.00422836 5.56261e-10
6.93612e-10 0.00422836 6.99823e-10
6.4289e-10 0.00422836 5.66272e-10
6.34233e-10 0.00422836 5.72595e-10
6.26206e-10 0.00422836 6.07601e-10
6.24082e-10 0.00422836 6.21328e-10
6.85362e-10 0.00422836 6.47152e-10
6.63386e-10 0.00422836 5.54908e-10
6.1051e-10 0.00422836 5.71913e-10
6.48327e-10 0.00422836 5.95593e-10
6.38059e-10 0.00422836 6.53358e-10
6.90753e-10 0.00422836 6.38038e-10
6.07505e-10 0.00422836 6.01557e-10
6.46859e-10 0.00422836 5.75603e-10
6.4693e-10 0.00422836 5.69247e-10
6.27027e-10 0.00422836 6.15777e-10
6.12623e-10 0.00422836 6.20616e-10
6.79692e-10 0.00422836 5.9406e-10
6.95848e-10 0.00422836 5.95925e-10
6.58509e-10 0.00422836 5.54512e-10
5.58541e-10 0.00422836 6.07947e-10
6.44397e-10 0.00422836 5.85461e-10
8.00049e-10 0.00529491 7.35227e-10
7.9148e-10 0.00529491 6.93566e-10
7.535e-10 0.00529491 7.6782e-10
8.24867e-10 0.00529491 8.56495e-10
9.48181e-10 0.00529491 8.66002e-10
8.11629e-10 0.00529491 7.3936e-10
7.77011e-10 0.00529491 7.27064e-10
8.09528e-10 0.00529491 7.54196e-10
7.99355e-10 0.00529491 8.28932e-10
8.40137e-10 0.00529491 8.34862e-10
7.68432e-10 0.00529491 6.82258e-10
7.74862e-10 0.00529491 7.54598e-10
8.33198e-10 0.00529491 8.21225e-10
7.86642e-10 0.00529491 8.35849e-10
7.32764e-10 0.00529491 8.76001e-10
8.31093e-10 0.00529491 7.70199e-10
8.05512e-10 0.00529491 8.04793e-10
8.40171e-10 0.00529491 8.04677e-10
7.50981e-10 0.00529491 8.1318e-10
8.40202e-10 0.00529491 8.32299e-10
7.69172e-10 0.00529491 7.99017e-10
8.35398e-10 0.00529491 7.87e-10
7.85087e-10 0.00529491 7.06844e-10
8.08637e-10 0.00529491 7.85263e-10
7.47161e-10 0.00529491 8.31729e-10
1.01815e-09 0.00636861 8.8698e-10
8.70877e-10 0.00636861 9.48081e-10
1.01743e-09 0.00636861 8.57554e-10
9.50857e-10 0.00636861 9.62366e-10
9.76142e-10 0.00636861 1.06375e-09
8.52703e-10 0.00636861 9.10571e-10
9.2768e-10 0.00636861 8.97618e-10
9.93169e-10 0.00636861 9.35497e-10
9.40413e-10 0.00636861 9.89719e-10
9.42887e-10 0.00636861 1.03314e-09
9.46871e-10 0.00636861 9.86064e-10
9.63616e-10 0.00636861 9.50828e-10
9.9572e-10 0.00636861 9.10272e-10
9.43917e-10 0.00636861 9.69127e-10
7.74792e-10 0.00636861 1.02041e-09
8.96586e-10 0.00636861 9.90115e-10
9.5506e-10 0.00636861 1.01623e-09
9.92722e-10 0.00636861 1.00496e-09
9.31761e-10 0.00636861 9.91671e-10
8.70729e-10 0.00636861 1.00638e-09
1.06402e-09 0.00636861 1.06763e-09
9.40234e-10 0.00636861 1.01032e-09
9.32896e-10 0.00636861 9.59955e-10
9.34127e-10 0.00636861 9.68147e-10
9.26856e-10 0.00636861 9.33847e-10
8.34416e-10 0.00745133 1.15066e-09
1.09369e-09 0.00745133 1.06892e-09
1.14667e-09 0.00745133 1.16888e-09
1.09319e-09 0.00745133 1.04682e-09
1.10266e-09 0.00745133 1.14655e-09
1.03722e-09 0.00745133 1.14645e-09
1.06772e-09 0.00745133 1.13958e-09
1.11358e-09 0.00745133 1.09355e-09
1.11519e-09 0.00745133 1.14454e-09
9.8907e-10 0.00745133 1.20706e-09
1.06176e-09 0.00745133 1.23365e-09
1.07182e-09 0.00745133 1.18616e-09
1.09856e-09 0.00745133 1.17415e-09
1.0987e-09 0.00745133 1.1712e-09
1.01105e-09 0.00745133 1.14196e-09
1.11876e-09 0.00745133 1.23453e-09
1.08837e-09 0.00745133 1.23315e-09
1.04353e-09 0.00745133 1.15946e-09
1.05618e-09 0.00745133 1.17113e-09
1.02135e-09 0.00745133 1.19963e-09
1.11298e-09 0.00745133 1.27465e-09
1.12712e-09 0.00745133 1.2727e-09
1.12394e-09 0.00745133 1.3078e-09
1.06153e-09 0.00745133 1.15709e-09
9.83423e-10 0.00745133 1.16785e-09
1.31028e-09 0.00854479 1.29537e-09
1.07798e-09 0.00854479 1.5298e-09
1.25163e-09 0.00854479 1.29093e-09
1.05976e-09 0.00854479 1.45797e-09
1.29749e-09 0.00854479 1.40527e-09
1.07318e-09 0.00854479 1.50141e-09
1.20455e-09 0.00854479 1.38496e-09
1.24525e-09 0.00854479 1.41493e-09
1.1284e-09 0.00854479 1.45144e-09
1.33023e-09 0.00854479 1.40856e-09
1.01085e-09 0.00854479 1.37147e-09
1.13722e-09 0.00854479 1.44541e-09
1.2594e-09 0.00854479 1.36185e-09
1.10727e-09 0.00854479 1.43821e-09
1.25225e-09 0.00854479 1.3722e-09
1.26319e-09 0.00854479 1.44227e-09
1.20477e-09 0.00854479 1.4433e-09
1.1717e-09 0.00854479 1.44005e-09
1.13011e-09 0.00854479 1.4315e-09
1.0641e-09 0.00854479 1.43496e-09
1.45855e-09 0.00854479 1.42669e-09
1.17899e-09 0.00854479 1.52424e-09
1.16363e-09 0.00854479 1.36535e-09
1.07225e-09 0.00854479 1.50798e-09
1.19258e-09 0.00854479 1.41108e-09
1.17165e-09 0.00965039 1.62177e-09
1.33649e-09 0.00965039 1.47616e-09
1.2853e-09 0.00965039 1.52564e-09
1.27371e-09 0.00965039 1.58501e-09
1.2631e-09 0.00965038 1.57579e-09
1.2079e-09 0.00965039 1.59359e-09
1.20964e-09 0.00965039 1.64967e-09
1.28055e-09 0.00965039 1.5891e-09
1.24115e-09 0.00965038 1.58688e-09
1.28216e-09 0.00965038 1.60205e-09
1.25804e-09 0.00965039 1.62033e-09
1.20527e-09 0.00965038 1.69279e-09
1.29785e-09 0.00965039 1.6204e-09
1.23445e-09 0.00965038 1.61262e-09
1.22975e-09 0.00965038 1.6813e-09
1.19339e-09 0.00965038 1.55525e-09
1.22398e-09 0.00965038 1.60561e-09
1.25546e-09 0.00965038 1.67715e-09
1.25227e-09 0.00965038 1.66322e-09
1.08245e-09 0.00965038 1.73408e-09
1.48807e-09 0.00965038 1.45383e-09
1.24609e-09 0.00965038 1.68029e-09
1.2958e-09 0.00965038 1.54232e-09
1.22272e-09 0.00965038 1.71357e-09
1.00562e-09 0.00965038 1.63012e-09
1.30182e-09 0.010769 1.91584e-09
1.26559e-09 0.010769 1.88844e-09
1.42469e-09 0.010769 1.73777e-09
1.3115e-09 0.010769 1.7563e-09
1.59443e-09 0.010769 1.93968e-09
1.20362e-09 0.010769 1.90046e-09
1.27768e-09 0.010769 1.90154e-09
1.34315e-09 0.010769 1.87409e-09
1.35291e-09 0.010769 1.80041e-09
1.54853e-09 0.010769 1.85145e-09
1.06243e-09 0.010769 1.88436e-09
1.22634e-09 0.010769 1.90704e-09
1.27599e-09 0.010769 1.9228e-09
1.34666e-09 0.010769 1.92824e-09
1.3863e-09 0.010769 1.81663e-09
1.18356e-09 0.010769 1.81194e-09
1.23715e-09 0.010769 1.84333e-09
1.31659e-09 0.010769 1.94429e-09
1.24484e-09 0.010769 1.83676e-09
1.23747e-09 0.010769 1.89146e-09
1.06058e-09 0.010769 2.02304e-09
1.34709e-09 0.010769 1.83541e-09
1.37048e-09 0.010769 1.97878e-09
1.16683e-09 0.010769 1.98011e-09
1.07211e-09 0.010769 1.8822e-09
1.46925e-09 0.0119012 2.30066e-09
1.22931e-09 0.0119012 2.11496e-09
1.37657e-09 0.0119012 2.16577e-09
1.43487e-09 0.0119012 2.31887e-09
1.22991e-09 0.0119011 2.42324e-09
1.17517e-09 0.0119012 2.30518e-09
1.22119e-09 0.0119012 2.23028e-09
1.33964e-09 0.0119012 2.1821e-09
1.38457e-09 0.0119012 2.24354e-09
1.32513e-09 0.0119012 2.30705e-09
1.00972e-09 0.0119012 2.24954e-09
1.2409e-09 0.0119012 2.27033e-09
1.2935e-09 0.0119011 2.21115e-09
1.26372e-09 0.0119012 2.16662e-09
1.40146e-09 0.0119011 2.26901e-09
1.02473e-09 0.0119011 2.35649e-09
1.26668e-09 0.0119012 2.20612e-09
1.2589e-09 0.0119012 2.25377e-09
1.21192e-09 0.0119011 2.19009e-09
1.26765e-09 0.0119011 2.23621e-09
1.08863e-09 0.0119011 2.32311e-09
1.16801e-09 0.0119011 2.37011e-09
1.338e-09 0.0119012 2.13575e-09
1.31434e-09 0.0119011 2.27546e-09
8.60021e-10 0.0119012 2.33736e-09
1.15277e-09 0.0130469 2.68506e-09
1.3232e-09 0.0130469 2.59839e-09
1.32452e-09 0.0130469 2.77944e-09
1.33216e-09 0.0130469 2.57834e-09
1.32327e-09 0.0130469 2.63447e-09
1.28093e-09 0.0130469 2.71021e-09
1.24373e-09 0.0130469 2.66759e-09
1.30869e-09 0.0130469 2.7126e-09
1.24785e-09 0.0130469 2.69948e-09
1.35692e-09 0.0130469 2.60646e-09
9.8322e-10 0.0130469 2.74344e-09
1.16866e-09 0.0130469 2.5972e-09
1.31377e-09 0.0130469 2.55028e-09
1.22403e-09 0.0130469 2.64677e-09
1.38337e-09 0.0130469 2.60453e-09
1.24277e-09 0.0130469 2.77242e-09
1.15051e-09 0.0130469 2.71851e-09
1.27362e-09 0.0130469 2.72541e-09
1.22485e-09 0.0130469 2.57674e-09
1.09028e-09 0.0130469 2.53862e-09
1.22632e-09 0.0130469 2.72888e-09
1.10224e-09 0.0130469 2.82027e-09
1.29374e-09 0.0130469 2.58004e-09
1.18013e-09 0.0130469 2.66367e-09
9.17805e-10 0.0130469 2.42909e-09
1.2664e-09 0.0142062 3.19867e-09
1.29911e-09 0.0142062 3.0943e-09
1.1543e-09 0.0142062 3.23979e-09
1.29937e-09 0.0142062 2.98405e-09
1.5569e-09 0.0142062 2.9861e-09
1.39362e-09 0.0142062 3.17386e-09
1.14631e-09 0.0142062 3.10604e-09
1.23844e-09 0.0142062 3.00646e-09
1.34599e-09 0.0142062 2.99987e-09
1.22952e-09 0.0142062 3.03708e-09
9.74142e-10 0.0142062 3.183e-09
1.12999e-09 0.0142062 3.13423e-09
1.35081e-09 0.0142062 3.20689e-09
1.32294e-09 0.0142062 3.12092e-09
1.18757e-09 0.0142062 2.99164e-09
1.00849e-09 0.0142062 3.19036e-09
1.22567e-09 0.0142062 3.14899e-09
1.31651e-09 0.0142062 3.1706e-09
1.17846e-09 0.0142062 3.03358e-09
1.22331e-09 0.0142062 2.97155e-09
9.40286e-10 0.0142062 3.29467e-09
1.3485e-09 0.0142062 3.20792e-09
1.24129e-09 0.0142062 3.29235e-09
1.16206e-09 0.0142062 3.05273e-09
1.29693e-09 0.0142062 3.08038e-09
1.67523e-09 0.0153792 3.79292e-09
1.14153e-09 0.0153792 3.58869e-09
1.15516e-09 0.0153792 3.65297e-09
1.22115e-09 0.0153792 3.44697e-09
1.29097e-09 0.0153792 3.68102e-09
1.26378e-09 0.0153792 3.66553e-09
1.16815e-09 0.0153792 3.64407e-09
1.16847e-09 0.0153792 3.61356e-09
1.20557e-09 0.0153792 3.61034e-09
1.2408e-09 0.0153792 3.58885e-09
9.53793e-10 0.0153792 3.61983e-09
1.1735e-09 0.0153792 3.93731e-09
1.34013e-09 0.0153792 3.65582e-09
1.2085e-09 0.0153792 3.4201e-09
1.08728e-09 0.0153792 3.5126e-09
8.9646e-10 0.0153792 3.84028e-09
1.17585e-09 0.0153792 3.7699e-09
1.36077e-09 0.0153792 3.69943e-09
1.17154e-09 0.0153792 3.33937e-09
1.12463e-09 0.0153792 3.66428e-09
1.16368e-09 0.0153792 3.82453e-09
1.28746e-09 0.0153792 3.73858e-09
1.17425e-09 0.0153792 3.5278e-09
1.25302e-09 0.0153792 3.70291e-09
1.27027e-09 0.0153792 3.68613e-09
1.1798e-09 0.0165665 4.15322e-09
1.1628e-09 0.0165665 4.07118e-09
1.05065e-09 0.0165665 3.85792e-09
1.25175e-09 0.0165665 4.02324e-09
1.13247e-09 0.0165665 4.06491e-09
1.15839e-09 0.0165665 4.17718e-09
1.09023e-09 0.0165665 4.1632e-09
1.21858e-09 0.0165665 4.14503e-09
1.16526e-09 0.0165665 4.18769e-09
1.24129e-09 0.0165665 4.01964e-09
9.83015e-10 0.0165665 4.26736e-09
1.16805e-09 0.0165665 4.12231e-09
1.23117e-09 0.0165665 4.10737e-09
1.18555e-09 0.0165665 3.9341e-09
1.23833e-09 0.0165665 3.8946e-09
1.25779e-09 0.0165665 4.31728e-09
9.71033e-10 0.0165665 4.218e-09
1.1729e-09 0.0165665 4.18786e-09
1.31095e-09 0.0165665 3.9432e-09
1.19563e-09 0.0165665 3.93721e-09
1.43056e-09 0.0165665 4.17463e-09
9.39248e-10 0.0165665 4.24679e-09
1.32186e-09 0.0165665 4.16344e-09
1.10362e-09 0.0165665 4.04725e-09
1.49436e-09 0.0165665 4.38222e-09
9.24303e-10 0.0177688 4.92617e-09
1.1749e-09 0.0177688 4.67733e-09
1.28164e-09 0.0177688 4.73962e-09
1.0816e-09 0.0177688 4.49871e-09
1.31752e-09 0.0177688 4.5755e-09
1.07709e-09 0.0177688 4.53908e-09
1.25888e-09 0.0177688 4.66822e-09
1.36831e-09 0.0177688 4.65501e-09
1.12854e-09 0.0177687 4.53659e-09
1.19286e-09 0.0177688 4.66493e-09
1.12501e-09 0.0177688 4.70381e-09
1.14319e-09 0.0177688 4.65115e-09
1.33164e-09 0.0177688 4.71952e-09
1.1827e-09 0.0177688 4.72664e-09
1.25649e-09 0.0177687 4.7901e-09
1.41326e-09 0.0177688 4.59453e-09
1.08454e-09 0.0177688 4.7484e-09
1.22923e-09 0.0177688 4.80134e-09
1.23286e-09 0.0177687 4.77599e-09
1.40835e-09 0.0177687 4.68679e-09
9.3706e-10 0.0177688 4.60238e-09
1.23534e-09 0.0177688 4.70341e-09
9.62937e-10 0.0177687 4.68594e-09
1.63107e-09 0.0177687 4.84726e-09
1.13343e-09 0.0177687 4.66061e-09
1.52876e-09 0.0189867 5.55666e-09
1.27537e-09 0.0189867 5.48618e-09
1.54154e-09 0.0189867 5.72145e-09
1.16704e-09 0.0189867 5.61685e-09
9.77853e-10 0.0189867 5.50174e-09
1.68124e-09 0.0189867 5.49698e-09
1.36463e-09 0.0189867 5.46657e-09
1.42782e-09 0.0189867 5.51224e-09
1.10293e-09 0.0189867 5.55041e-09
1.27338e-09 0.0189867 5.50227e-09
1.48082e-09 0.0189867 5.29905e-09
1.45783e-09 0.0189867 5.32706e-09
1.40218e-09 0.0189867 5.35799e-09
1.39449e-09 0.0189867 5.52896e-09
1.08042e-09 0.0189867 5.64641e-09
1.45627e-09 0.0189867 5.30851e-09
1.32341e-09 0.0189867 5.18593e-09
1.33982e-09 0.0189867 5.3748e-09
1.41943e-09 0.0189867 5.4102e-09
1.2381e-09 0.0189867 5.49858e-09
1.80756e-09 0.0189867 5.31253e-09
1.1503e-09 0.0189867 5.34034e-09
1.4445e-09 0.0189867 5.32306e-09
1.38081e-09 0.0189867 5.32457e-09
1.32926e-09 0.0189867 5.45018e-09
1.84345e-09 0.0202208 6.02658e-09
1.61584e-09 0.0202208 6.46612e-09
1.68151e-09 0.0202208 6.26556e-09
1.20539e-09 0.0202208 6.29768e-09
1.31725e-09 0.0202208 6.34367e-09
1.79059e-09 0.0202208 6.13522e-09
1.55501e-09 0.0202208 6.15059e-09
1.50127e-09 0.0202208 6.32178e-09
1.29259e-09 0.0202208 6.25456e-09
1.48905e-09 0.0202208 6.16055e-09
1.74958e-09 0.0202208 6.27021e-09
1.46078e-09 0.0202208 6.00666e-09
1.6053e-09 0.0202208 6.06688e-09
1.56125e-09 0.0202208 6.18511e-09
1.70188e-09 0.0202207 6.24432e-09
1.66644e-09 0.0202208 5.98953e-09
1.46884e-09 0.0202208 5.89438e-09
1.61175e-09 0.0202207 6.19829e-09
1.69064e-09 0.0202207 6.09466e-09
1.37804e-09 0.0202207 6.2671e-09
1.73642e-09 0.0202208 6.13519e-09
1.53583e-09 0.0202207 5.89147e-09
1.72347e-09 0.0202207 5.92598e-09
1.47461e-09 0.0202207 6.04277e-09
1.36056e-09 0.0202207 6.20998e-09
2.16497e-09 0.0214705 7.05201e-09
1.8392e-09 0.0214705 7.04737e-09
1.51667e-09 0.0214705 6.84094e-09
1.72886e-09 0.0214704 6.95637e-09
1.3387e-09 0.0214704 6.96412e-09
1.97574e-09 0.0214705 7.23929e-09
1.845e-09 0.0214705 7.016e-09
1.85147e-09 0.0214704 6.9617e-09
1.73161e-09 0.0214704 7.00338e-09
1.64163e-09 0.0214704 6.87609e-09
1.75685e-09 0.0214704 6.95543e-09
1.86232e-09 0.0214705 7.0458e-09
1.82757e-09 0.0214704 6.9683e-09
1.78193e-09 0.0214704 7.04446e-09
1.81135e-09 0.0214704 6.92525e-09
1.8804e-09 0.0214704 7.12339e-09
1.79982e-09 0.0214704 6.94854e-09
1.94581e-09 0.0214704 7.06238e-09
1.78873e-09 0.0214704 7.02981e-09
2.144e-09 0.0214704 6.9809e-09
1.27714e-09 0.0214704 6.86755e-09
1.93176e-09 0.0214704 6.82268e-09
2.0048e-09 0.0214704 6.83819e-09
1.8344e-09 0.0214704 6.92343e-09
1.59239e-09 0.0214704 6.9242e-09
2.36434e-09 0.0227348 8.50368e-09
2.33655e-09 0.0227348 8.3318e-09
2.12939e-09 0.0227348 8.2447e-09
1.71303e-09 0.0227348 8.51041e-09
2.35441e-09 0.0227348 8.16803e-09
2.62413e-09 0.0227348 8.20069e-09
2.08604e-09 0.0227348 8.19262e-09
2.00888e-09 0.0227348 7.99699e-09
2.00434e-09 0.0227348 8.11402e-09
1.74048e-09 0.0227347 8.04913e-09
2.1104e-09 0.0227348 8.15319e-09
2.05577e-09 0.0227348 8.21441e-09
2.23857e-09 0.0227347 8.09029e-09
2.08832e-09 0.0227348 7.82674e-09
1.92455e-09 0.0227347 7.82586e-09
2.3229e-09 0.0227347 8.08212e-09
2.11221e-09 0.0227348 7.98411e-09
2.0488e-09 0.0227347 8.25694e-09
2.02043e-09 0.0227347 8.06487e-09
1.89945e-09 0.0227347 8.02348e-09
2.66321e-09 0.0227347 8.07249e-09
2.01984e-09 0.0227347 8.26079e-09
2.15281e-09 0.0227347 8.00934e-09
1.6883e-09 0.0227347 7.95287e-09
1.81044e-09 0.0227347 7.9157e-09
2.67037e-09 0.0240123 9.62696e-09
2.56868e-09 0.0240123 8.97753e-09
2.81203e-09 0.0240123 9.39141e-09
2.0126e-09 0.0240123 9.51008e-09
2.37801e-09 0.0240123 9.48322e-09
2.55745e-09 0.0240123 9.45108e-09
2.39798e-09 0.0240123 9.35699e-09
2.42978e-09 0.0240123 9.15133e-09
2.287e-09 0.0240123 9.16701e-09
2.01239e-09 0.0240123 9.3437e-09
2.31241e-09 0.0240123 9.296e-09
2.42046e-09 0.0240123 9.338e-09
2.35063e-09 0.0240123 9.4146e-09
2.17321e-09 0.0240123 9.28183e-09
2.68959e-09 0.0240123 8.95043e-09
2.56503e-09 0.0240123 9.41675e-09
2.52148e-09 0.0240123 9.52732e-09
2.28908e-09 0.0240123 9.25242e-09
2.10381e-09 0.0240123 8.97228e-09
2.41825e-09 0.0240123 9.15094e-09
2.65011e-09 0.0240123 9.49191e-09
2.60307e-09 0.0240123 9.19836e-09
2.31811e-09 0.0240123 9.54844e-09
2.14159e-09 0.0240123 9.23848e-09
2.1434e-09 0.0240123 9.40194e-09
2.97086e-09 0.0253022 1.03107e-08
2.70017e-09 0.0253022 1.03005e-08
2.65576e-09 0.0253022 9.87264e-09
2.58054e-09 0.0253022 9.99186e-09
2.50555e-09 0.0253022 1.05346e-08
2.95379e-09 0.0253022 1.06024e-08
2.8071e-09 0.0253022 1.04936e-08
2.75125e-09 0.0253022 1.03817e-08
2.54836e-09 0.0253022 1.04709e-08
2.74676e-09 0.0253022 1.05286e-08
2.68073e-09 0.0253022 1.0477e-08
2.70227e-09 0.0253022 1.05215e-08
2.69934e-09 0.0253022 1.04129e-08
2.39349e-09 0.0253022 1.02783e-08
2.86741e-09 0.0253022 1.04792e-08
2.7312e-09 0.0253022 1.05598e-08
2.86933e-09 0.0253022 1.03856e-08
2.52168e-09 0.0253022 1.06149e-08
2.47359e-09 0.0253022 1.04598e-08
2.49854e-09 0.0253022 1.05072e-08
4.1148e-09 0.0253022 1.07188e-08
2.6425e-09 0.0253022 1.0671e-08
2.36549e-09 0.0253022 1.08408e-08
2.30012e-09 0.0253022 1.04496e-08
2.28565e-09 0.0253022 1.08432e-08
2.73593e-09 0.0266044 1.18322e-08
2.86793e-09 0.0266044 1.17757e-08
2.55152e-09 0.0266044 1.16691e-08
2.94603e-09 0.0266044 1.14522e-08
3.31713e-09 0.0266044 1.1431e-08
2.97922e-09 0.0266044 1.16633e-08
2.82963e-09 0.0266044 1.1712e-08
2.82387e-09 0.0266044 1.18872e-08
2.83682e-09 0.0266044 1.15673e-08
2.91741e-09 0.0266044 1.16042e-08
2.70262e-09 0.0266044 1.18333e-08
2.90424e-09 0.0266044 1.17823e-08
2.90281e-09 0.0266044 1.17408e-08
2.56325e-09 0.0266044 1.16279e-08
3.55233e-09 0.0266044 1.17171e-08
3.4362e-09 0.0266044 1.17295e-08
2.85104e-09 0.0266044 1.17893e-08
2.79355e-09 0.0266044 1.16778e-08
2.5551e-09 0.0266044 1.16351e-08
2.76846e-09 0.0266044 1.17854e-08
3.0722e-09 0.0266044 1.15603e-08
2.95274e-09 0.0266044 1.17363e-08
2.95399e-09 0.0266044 1.19273e-08
2.41861e-09 0.0266044 1.17522e-08
2.30196e-09 0.0266044 1.17879e-08
3.17659e-09 0.0279195 1.31266e-08
3.09062e-09 0.0279195 1.30263e-08
3.01686e-09 0.0279195 1.27351e-08
2.90745e-09 0.0279195 1.25876e-08