<?xml version="1.0"?>
<VTKFile type="UnstructuredGrid" version="0.1" byte_order="LittleEndian">
<UnstructuredGrid>
<Piece NumberOfPoints="1025" NumberOfCells="640">
<Points>
<DataArray type="Float32" NumberOfComponents="3" format="ascii">
0 0 0
0.025 0 0
0.05 0 0
0.075 0 0
0.1 0 0
0 0.025 0
0.025 0.025 0
0.05 0.025 0
0.075 0.025 0
0.1 0.025 0
0 0.05 0
0.025 0.05 0
0.05 0.05 0
0.075 0.05 0
0.1 0.05 0
0 0.075 0
0.025 0.075 0
0.05 0.075 0
0.075 0.075 0
0.1 0.075 0
0 0.1 0
0.025 0.1 0
0.05 0.1 0
0.075 0.1 0
0.1 0.1 0
0 0 0.025
0.025 0 0.025
0.05 0 0.025
0.075 0 0.025
0.1 0 0.025
0 0.025 0.025
0.025 0.025 0.025
0.05 0.025 0.025
0.075 0.025 0.025
0.1 0.025 0.025
0 0.05 0.025
0.025 0.05 0.025
0.05 0.05 0.025
0.075 0.05 0.025
0.1 0.05 0.025
0 0.075 0.025
0.025 0.075 0.025
0.05 0.075 0.025
0.075 0.075 0.025
0.1 0.075 0.025
0 0.1 0.025
0.025 0.1 0.025
0.05 0.1 0.025
0.075 0.1 0.025
0.1 0.1 0.025
0 0 0.05
0.025 0 0.05
0.05 0 0.05
0.075 0 0.05
0.1 0 0.05
0 0.025 0.05
0.025 0.025 0.05
0.05 0.025 0.05
0.075 0.025 0.05
0.1 0.025 0.05
0 0.05 0.05
0.025 0.05 0.05
0.05 0.05 0.05
0.075 0.05 0.05
0.1 0.05 0.05
0 0.075 0.05
0.025 0.075 0.05
0.05 0.075 0.05
0.075 0.075 0.05
0.1 0.075 0.05
0 0.1 0.05
0.025 0.1 0.05
0.05 0.1 0.05
0.075 0.1 0.05
0.1 0.1 0.05
0 0 0.075
0.025 0 0.075
0.05 0 0.075
0.075 0 0.075
0.1 0 0.075
0 0.025 0.075
0.025 0.025 0.075
0.05 0.025 0.075
0.075 0.025 0.075
0.1 0.025 0.075
0 0.05 0.075
0.025 0.05 0.075
0.05 0.05 0.075
0.075 0.05 0.075
0.1 0.05 0.075
0 0.075 0.075
0.025 0.075 0.075
0.05 0.075 0.075
0.075 0.075 0.075
0.1 0.075 0.075
0 0.1 0.075
0.025 0.1 0.075
0.05 0.1 0.075
0.075 0.1 0.075
0.1 0.1 0.075
0 0 0.1
0.025 0 0.1
0.05 0 0.1
0.075 0 0.1
0.1 0 0.1
0 0.025 0.1
0.025 0.025 0.1
0.05 0.025 0.1
0.075 0.025 0.1
0.1 0.025 0.1
0 0.05 0.1
0.025 0.05 0.1
0.05 0.05 0.1
0.075 0.05 0.1
0.1 0.05 0.1
0 0.075 0.1
0.025 0.075 0.1
0.05 0.075 0.1
0.075 0.075 0.1
0.1 0.075 0.1
0 0.1 0.1
0.025 0.1 0.1
0.05 0.1 0.1
0.075 0.1 0.1
0.1 0.1 0.1
0 0 0.125
0.025 0 0.125
0.05 0 0.125
0.075 0 0.125
0.1 0 0.125
0 0.025 0.125
0.025 0.025 0.125
0.05 0.025 0.125
0.075 0.025 0.125
0.1 0.025 0.125
0 0.05 0.125
0.025 0.05 0.125
0.05 0.05 0.125
0.075 0.05 0.125
0.1 0.05 0.125
0 0.075 0.125
0.025 0.075 0.125
0.05 0.075 0.125
0.075 0.075 0.125
0.1 0.075 0.125
0 0.1 0.125
0.025 0.1 0.125
0.05 0.1 0.125
0.075 0.1 0.125
0.1 0.1 0.125
0 0 0.15
0.025 0 0.15
0.05 0 0.15
0.075 0 0.15
0.1 0 0.15
0 0.025 0.15
0.025 0.025 0.15
0.05 0.025 0.15
0.075 0.025 0.15
0.1 0.025 0.15
0 0.05 0.15
0.025 0.05 0.15
0.05 0.05 0.15
0.075 0.05 0.15
0.1 0.05 0.15
0 0.075 0.15
0.025 0.075 0.15
0.05 0.075 0.15
0.075 0.075 0.15
0.1 0.075 0.15
0 0.1 0.15
0.025 0.1 0.15
0.05 0.1 0.15
0.075 0.1 0.15
0.1 0.1 0.15
0 0 0.175
0.025 0 0.175
0.05 0 0.175
0.075 0 0.175
0.1 0 0.175
0 0.025 0.175
0.025 0.025 0.175
0.05 0.025 0.175
0.075 0.025 0.175
0.1 0.025 0.175
0 0.05 0.175
0.025 0.05 0.175
0.05 0.05 0.175
0.075 0.05 0.175
0.1 0.05 0.175
0 0.075 0.175
0.025 0.075 0.175
0.05 0.075 0.175
0.075 0.075 0.175
0.1 0.075 0.175
0 0.1 0.175
0.025 0.1 0.175
0.05 0.1 0.175
0.075 0.1 0.175
0.1 0.1 0.175
0 0 0.2
0.025 0 0.2
0.05 0 0.2
0.075 0 0.2
0.1 0 0.2
0 0.025 0.2
0.025 0.025 0.2
0.05 0.025 0.2
0.075 0.025 0.2
0.1 0.025 0.2
0 0.05 0.2
0.025 0.05 0.2
0.05 0.05 0.2
0.075 0.05 0.2
0.1 0.05 0.2
0 0.075 0.2
0.025 0.075 0.2
0.05 0.075 0.2
0.075 0.075 0.2
0.1 0.075 0.2
0 0.1 0.2
0.025 0.1 0.2
0.05 0.1 0.2
0.075 0.1 0.2
0.1 0.1 0.2
0 0 0.225
0.025 0 0.225
0.05 0 0.225
0.075 0 0.225
0.1 0 0.225
0 0.025 0.225
0.025 0.025 0.225
0.05 0.025 0.225
0.075 0.025 0.225
0.1 0.025 0.225
0 0.05 0.225
0.025 0.05 0.225
0.05 0.05 0.225
0.075 0.05 0.225
0.1 0.05 0.225
0 0.075 0.225
0.025 0.075 0.225
0.05 0.075 0.225
0.075 0.075 0.225
0.1 0.075 0.225
0 0.1 0.225
0.025 0.1 0.225
0.05 0.1 0.225
0.075 0.1 0.225
0.1 0.1 0.225
0 0 0.25
0.025 0 0.25
0.05 0 0.25
0.075 0 0.25
0.1 0 0.25
0 0.025 0.25
0.025 0.025 0.25
0.05 0.025 0.25
0.075 0.025 0.25
0.1 0.025 0.25
0 0.05 0.25
0.025 0.05 0.25
0.05 0.05 0.25
0.075 0.05 0.25
0.1 0.05 0.25
0 0.075 0.25
0.025 0.075 0.25
0.05 0.075 0.25
0.075 0.075 0.25
0.1 0.075 0.25
0 0.1 0.25
0.025 0.1 0.25
0.05 0.1 0.25
0.075 0.1 0.25
0.1 0.1 0.25
0 0 0.275
0.025 0 0.275
0.05 0 0.275
0.075 0 0.275
0.1 0 0.275
0 0.025 0.275
0.025 0.025 0.275
0.05 0.025 0.275
0.075 0.025 0.275
0.1 0.025 0.275
0 0.05 0.275
0.025 0.05 0.275
0.05 0.05 0.275
0.075 0.05 0.275
0.1 0.05 0.275
0 0.075 0.275
0.025 0.075 0.275
0.05 0.075 0.275
0.075 0.075 0.275
0.1 0.075 0.275
0 0.1 0.275
0.025 0.1 0.275
0.05 0.1 0.275
0.075 0.1 0.275
0.1 0.1 0.275
0 0 0.3
0.025 0 0.3
0.05 0 0.3
0.075 0 0.3
0.1 0 0.3
0 0.025 0.3
0.025 0.025 0.3
0.05 0.025 0.3
0.075 0.025 0.3
0.1 0.025 0.3
0 0.05 0.3
0.025 0.05 0.3
0.05 0.05 0.3
0.075 0.05 0.3
0.1 0.05 0.3
0 0.075 0.3
0.025 0.075 0.3
0.05 0.075 0.3
0.075 0.075 0.3
0.1 0.075 0.3
0 0.1 0.3
0.025 0.1 0.3
0.05 0.1 0.3
0.075 0.1 0.3
0.1 0.1 0.3
0 0 0.325
0.025 0 0.325
0.05 0 0.325
0.075 0 0.325
0.1 0 0.325
0 0.025 0.325
0.025 0.025 0.325
0.05 0.025 0.325
0.075 0.025 0.325
0.1 0.025 0.325
0 0.05 0.325
0.025 0.05 0.325
0.05 0.05 0.325
0.075 0.05 0.325
0.1 0.05 0.325
0 0.075 0.325
0.025 0.075 0.325
0.05 0.075 0.325
0.075 0.075 0.325
0.1 0.075 0.325
0 0.1 0.325
0.025 0.1 0.325
0.05 0.1 0.325
0.075 0.1 0.325
0.1 0.1 0.325
0 0 0.35
0.025 0 0.35
0.05 0 0.35
0.075 0 0.35
0.1 0 0.35
0 0.025 0.35
0.025 0.025 0.35
0.05 0.025 0.35
0.075 0.025 0.35
0.1 0.025 0.35
0 0.05 0.35
0.025 0.05 0.35
0.05 0.05 0.35
0.075 0.05 0.35
0.1 0.05 0.35
0 0.075 0.35
0.025 0.075 0.35
0.05 0.075 0.35
0.075 0.075 0.35
0.1 0.075 0.35
0 0.1 0.35
0.025 0.1 0.35
0.05 0.1 0.35
0.075 0.1 0.35
0.1 0.1 0.35
0 0 0.375
0.025 0 0.375
0.05 0 0.375
0.075 0 0.375
0.1 0 0.375
0 0.025 0.375
0.025 0.025 0.375
0.05 0.025 0.375
0.075 0.025 0.375
0.1 0.025 0.375
0 0.05 0.375
0.025 0.05 0.375
0.05 0.05 0.375
0.075 0.05 0.375
0.1 0.05 0.375
0 0.075 0.375
0.025 0.075 0.375
0.05 0.075 0.375
0.075 0.075 0.375
0.1 0.075 0.375
0 0.1 0.375
0.025 0.1 0.375
0.05 0.1 0.375
0.075 0.1 0.375
0.1 0.1 0.375
0 0 0.4
0.025 0 0.4
0.05 0 0.4
0.075 0 0.4
0.1 0 0.4
0 0.025 0.4
0.025 0.025 0.4
0.05 0.025 0.4
0.075 0.025 0.4
0.1 0.025 0.4
0 0.05 0.4
0.025 0.05 0.4
0.05 0.05 0.4
0.075 0.05 0.4
0.1 0.05 0.4
0 0.075 0.4
0.025 0.075 0.4
0.05 0.075 0.4
0.075 0.075 0.4
0.1 0.075 0.4
0 0.1 0.4
0.025 0.1 0.4
0.05 0.1 0.4
0.075 0.1 0.4
0.1 0.1 0.4
0 0 0.425
0.025 0 0.425
0.05 0 0.425
0.075 0 0.425
0.1 0 0.425
0 0.025 0.425
0.025 0.025 0.425
0.05 0.025 0.425
0.075 0.025 0.425
0.1 0.025 0.425
0 0.05 0.425
0.025 0.05 0.425
0.05 0.05 0.425
0.075 0.05 0.425
0.1 0.05 0.425
0 0.075 0.425
0.025 0.075 0.425
0.05 0.075 0.425
0.075 0.075 0.425
0.1 0.075 0.425
0 0.1 0.425
0.025 0.1 0.425
0.05 0.1 0.425
0.075 0.1 0.425
0.1 0.1 0.425
0 0 0.45
0.025 0 0.45
0.05 0 0.45
0.075 0 0.45
0.1 0 0.45
0 0.025 0.45
0.025 0.025 0.45
0.05 0.025 0.45
0.075 0.025 0.45
0.1 0.025 0.45
0 0.05 0.45
0.025 0.05 0.45
0.05 0.05 0.45
0.075 0.05 0.45
0.1 0.05 0.45
0 0.075 0.45
0.025 0.075 0.45
0.05 0.075 0.45
0.075 0.075 0.45
0.1 0.075 0.45
0 0.1 0.45
0.025 0.1 0.45
0.05 0.1 0.45
0.075 0.1 0.45
0.1 0.1 0.45
0 0 0.475
0.025 0 0.475
0.05 0 0.475
0.075 0 0.475
0.1 0 0.475
0 0.025 0.475
0.025 0.025 0.475
0.05 0.025 0.475
0.075 0.025 0.475
0.1 0.025 0.475
0 0.05 0.475
0.025 0.05 0.475
0.05 0.05 0.475
0.075 0.05 0.475
0.1 0.05 0.475
0 0.075 0.475
0.025 0.075 0.475
0.05 0.075 0.475
0.075 0.075 0.475
0.1 0.075 0.475
0 0.1 0.475
0.025 0.1 0.475
0.05 0.1 0.475
0.075 0.1 0.475
0.1 0.1 0.475
0 0 0.5
0.025 0 0.5
0.05 0 0.5
0.075 0 0.5
0.1 0 0.5
0 0.025 0.5
0.025 0.025 0.5
0.05 0.025 0.5
0.075 0.025 0.5
0.1 0.025 0.5
0 0.05 0.5
0.025 0.05 0.5
0.05 0.05 0.5
0.075 0.05 0.5
0.1 0.05 0.5
0 0.075 0.5
0.025 0.075 0.5
0.05 0.075 0.5
0.075 0.075 0.5
0.1 0.075 0.5
0 0.1 0.5
0.025 0.1 0.5
0.05 0.1 0.5
0.075 0.1 0.5
0.1 0.1 0.5
0 0 0.525
0.025 0 0.525
0.05 0 0.525
0.075 0 0.525
0.1 0 0.525
0 0.025 0.525
0.025 0.025 0.525
0.05 0.025 0.525
0.075 0.025 0.525
0.1 0.025 0.525
0 0.05 0.525
0.025 0.05 0.525
0.05 0.05 0.525
0.075 0.05 0.525
0.1 0.05 0.525
0 0.075 0.525
0.025 0.075 0.525
0.05 0.075 0.525
0.075 0.075 0.525
0.1 0.075 0.525
0 0.1 0.525
0.025 0.1 0.525
0.05 0.1 0.525
0.075 0.1 0.525
0.1 0.1 0.525
0 0 0.55
0.025 0 0.55
0.05 0 0.55
0.075 0 0.55
0.1 0 0.55
0 0.025 0.55
0.025 0.025 0.55
0.05 0.025 0.55
0.075 0.025 0.55
0.1 0.025 0.55
0 0.05 0.55
0.025 0.05 0.55
0.05 0.05 0.55
0.075 0.05 0.55
0.1 0.05 0.55
0 0.075 0.55
0.025 0.075 0.55
0.05 0.075 0.55
0.075 0.075 0.55
0.1 0.075 0.55
0 0.1 0.55
0.025 0.1 0.55
0.05 0.1 0.55
0.075 0.1 0.55
0.1 0.1 0.55
0 0 0.575
0.025 0 0.575
0.05 0 0.575
0.075 0 0.575
0.1 0 0.575
0 0.025 0.575
0.025 0.025 0.575
0.05 0.025 0.575
0.075 0.025 0.575
0.1 0.025 0.575
0 0.05 0.575
0.025 0.05 0.575
0.05 0.05 0.575
0.075 0.05 0.575
0.1 0.05 0.575
0 0.075 0.575
0.025 0.075 0.575
0.05 0.075 0.575
0.075 0.075 0.575
0.1 0.075 0.575
0 0.1 0.575
0.025 0.1 0.575
0.05 0.1 0.575
0.075 0.1 0.575
0.1 0.1 0.575
0 0 0.6
0.025 0 0.6
0.05 0 0.6
0.075 0 0.6
0.1 0 0.6
0 0.025 0.6
0.025 0.025 0.6
0.05 0.025 0.6
0.075 0.025 0.6
0.1 0.025 0.6
0 0.05 0.6
0.025 0.05 0.6
0.05 0.05 0.6
0.075 0.05 0.6
0.1 0.05 0.6
0 0.075 0.6
0.025 0.075 0.6
0.05 0.075 0.6
0.075 0.075 0.6
0.1 0.075 0.6
0 0.1 0.6
0.025 0.1 0.6
0.05 0.1 0.6
0.075 0.1 0.6
0.1 0.1 0.6
0 0 0.625
0.025 0 0.625
0.05 0 0.625
0.075 0 0.625
0.1 0 0.625
0 0.025 0.625
0.025 0.025 0.625
0.05 0.025 0.625
0.075 0.025 0.625
0.1 0.025 0.625
0 0.05 0.625
0.025 0.05 0.625
0.05 0.05 0.625
0.075 0.05 0.625
0.1 0.05 0.625
0 0.075 0.625
0.025 0.075 0.625
0.05 0.075 0.625
0.075 0.075 0.625
0.1 0.075 0.625
0 0.1 0.625
0.025 0.1 0.625
0.05 0.1 0.625
0.075 0.1 0.625
0.1 0.1 0.625
0 0 0.65
0.025 0 0.65
0.05 0 0.65
0.075 0 0.65
0.1 0 0.65
0 0.025 0.65
0.025 0.025 0.65
0.05 0.025 0.65
0.075 0.025 0.65
0.1 0.025 0.65
0 0.05 0.65
0.025 0.05 0.65
0.05 0.05 0.65
0.075 0.05 0.65
0.1 0.05 0.65
0 0.075 0.65
0.025 0.075 0.65
0.05 0.075 0.65
0.075 0.075 0.65
0.1 0.075 0.65
0 0.1 0.65
0.025 0.1 0.65
0.05 0.1 0.65
0.075 0.1 0.65
0.1 0.1 0.65
0 0 0.675
0.025 0 0.675
0.05 0 0.675
0.075 0 0.675
0.1 0 0.675
[...]
<PointData Vectors="Displacement">
<DataArray type="Float32" Name="Displacement" NumberOfComponents="3" format="ascii">
0 0 0
0 0 0
0 0 0
0 0 0
0 0 0
0 0 0
0 0 0
0 0 0
0 0 0
0 0 0
0 0 0
0 0 0
0 0 0
0 0 0
0 0 0
0 0 0
0 0 0
0 0 0
0 0 0
0 0 0
0 0 0
0 0 0
0 0 0
0 0 0
0 0 0
-5.22193e-10 0.00122395 2.40005e-09
-8.9952e-10 0.00122395 2.37366e-09
-1.14906e-09 0.00122395 2.36692e-09
-1.39397e-09 0.00122395 2.37975e-09
-1.82498e-09 0.00122395 2.37143e-09
-4.41855e-10 0.00122395 2.39954e-09
-8.89417e-10 0.00122395 2.38482e-09
-1.14401e-09 0.00122395 2.37191e-09
-1.40336e-09 0.00122395 2.37789e-09
-1.83202e-09 0.00122395 2.38676e-09
-4.16026e-10 0.00122395 2.38308e-09
-8.67315e-10 0.00122395 2.40871e-09
-1.14757e-09 0.00122395 2.39167e-09
-1.408e-09 0.00122395 2.39377e-09
-1.87633e-09 0.00122395 2.4027e-09
-3.72314e-10 0.00122395 2.41803e-09
-8.60333e-10 0.00122395 2.40385e-09
-1.123e-09 0.00122395 2.40704e-09
-1.41452e-09 0.00122395 2.4191e-09
-1.89281e-09 0.00122395 2.42337e-09
-3.83882e-10 0.00122395 2.42792e-09
-8.46646e-10 0.00122395 2.4084e-09
-1.14941e-09 0.00122395 2.44426e-09
-1.41032e-09 0.00122395 2.4154e-09
-1.88635e-09 0.00122395 2.44531e-09
-1.51647e-09 0.00243934 4.88008e-09
-1.88174e-09 0.00243934 4.85281e-09
-2.21676e-09 0.00243934 4.88658e-09
-2.63651e-09 0.00243934 4.82968e-09
-3.07267e-09 0.00243934 4.82072e-09
-1.4171e-09 0.00243934 4.85456e-09
-1.84206e-09 0.00243934 4.8554e-09
-2.26478e-09 0.00243934 4.83989e-09
-2.61817e-09 0.00243934 4.86373e-09
-3.07727e-09 0.00243934 4.8437e-09
-1.34911e-09 0.00243934 4.877e-09
-1.82897e-09 0.00243934 4.87019e-09
-2.244e-09 0.00243934 4.80298e-09
-2.67102e-09 0.00243934 4.86455e-09
-3.07021e-09 0.00243934 4.89658e-09
-1.28136e-09 0.00243934 4.88953e-09
-1.82558e-09 0.00243934 4.87846e-09
-2.22798e-09 0.00243934 4.88405e-09
-2.66845e-09 0.00243934 4.88404e-09
-3.1408e-09 0.00243934 4.84422e-09
-1.30969e-09 0.00243934 4.90238e-09
-1.77578e-09 0.00243934 4.90999e-09
-2.21493e-09 0.00243934 4.90398e-09
-2.65613e-09 0.00243934 4.90488e-09
-3.20496e-09 0.00243934 4.87858e-09
-2.52551e-09 0.00363852 7.20637e-09
-2.85355e-09 0.00363851 7.29083e-09
-3.28314e-09 0.00363851 7.34114e-09
-3.75096e-09 0.00363851 7.33464e-09
-3.9816e-09 0.00363851 7.28581e-09
-2.47593e-09 0.00363851 7.29246e-09
-2.85207e-09 0.00363851 7.30859e-09
-3.22122e-09 0.00363851 7.29148e-09
-3.68931e-09 0.00363851 7.33058e-09
-4.10554e-09 0.00363851 7.30481e-09
-2.37409e-09 0.00363851 7.31565e-09
-2.83671e-09 0.00363851 7.27115e-09
-3.28471e-09 0.00363851 7.30965e-09
-3.65113e-09 0.00363851 7.3251e-09
-4.14319e-09 0.00363851 7.28144e-09
-2.29386e-09 0.00363851 7.31535e-09
-2.8151e-09 0.00363851 7.32062e-09
-3.26159e-09 0.00363851 7.29391e-09
-3.69678e-09 0.00363851 7.32243e-09
-4.16152e-09 0.00363851 7.29252e-09
-2.38808e-09 0.00363851 7.31824e-09
-2.81584e-09 0.00363851 7.31671e-09
-3.259e-09 0.00363851 7.21978e-09
-3.7322e-09 0.00363851 7.29562e-09
-4.13462e-09 0.00363851 7.3171e-09
-3.5147e-09 0.00481554 9.5748e-09
-3.71685e-09 0.00481554 9.62779e-09
-4.15293e-09 0.00481554 9.63839e-09
-4.53394e-09 0.00481554 9.53019e-09
-4.85775e-09 0.00481554 9.65823e-09
-3.46274e-09 0.00481554 9.61155e-09
-3.77998e-09 0.00481554 9.57055e-09
-4.11057e-09 0.00481554 9.5998e-09
-4.54208e-09 0.00481554 9.61915e-09
-4.88802e-09 0.00481554 9.66297e-09
-3.38593e-09 0.00481554 9.5974e-09
-3.77362e-09 0.00481554 9.63315e-09
-4.1045e-09 0.00481554 9.61867e-09
-4.55418e-09 0.00481554 9.63791e-09
-4.87404e-09 0.00481554 9.57252e-09
-3.27058e-09 0.00481554 9.59652e-09
-3.78575e-09 0.00481554 9.60198e-09
-4.15169e-09 0.00481554 9.58676e-09
-4.53205e-09 0.00481554 9.59902e-09
-4.95143e-09 0.00481554 9.59349e-09
-3.33643e-09 0.00481554 9.54998e-09
-3.7025e-09 0.00481554 9.61161e-09
-4.15068e-09 0.00481554 9.52358e-09
-4.47556e-09 0.00481554 9.51985e-09
-4.94081e-09 0.00481554 9.61897e-09
-4.2737e-09 0.00596694 1.1798e-08
-4.62622e-09 0.00596694 1.17542e-08
-4.82197e-09 0.00596694 1.17486e-08
-5.20798e-09 0.00596694 1.1807e-08
-5.52598e-09 0.00596694 1.18006e-08
-4.24096e-09 0.00596694 1.17921e-08
-4.56948e-09 0.00596694 1.18473e-08
-4.84169e-09 0.00596694 1.17137e-08
-5.21486e-09 0.00596694 1.17727e-08
-5.56342e-09 0.00596694 1.17623e-08
-4.21183e-09 0.00596694 1.17513e-08
-4.55671e-09 0.00596694 1.17717e-08
-4.84933e-09 0.00596694 1.17758e-08
-5.25702e-09 0.00596694 1.17511e-08
-5.60913e-09 0.00596694 1.18003e-08
-4.10395e-09 0.00596694 1.16917e-08
-4.5344e-09 0.00596694 1.17692e-08
-4.88948e-09 0.00596694 1.18234e-08
-5.25811e-09 0.00596694 1.17974e-08
-5.64467e-09 0.00596694 1.17221e-08
-4.15927e-09 0.00596694 1.17316e-08
-4.56366e-09 0.00596694 1.1718e-08
-4.9483e-09 0.00596694 1.1753e-08
-5.25684e-09 0.00596694 1.17844e-08
-5.52239e-09 0.00596694 1.17661e-08
-4.76721e-09 0.00709218 1.37147e-08
-5.14932e-09 0.00709217 1.3783e-08
-5.50002e-09 0.00709218 1.36454e-08
-5.80377e-09 0.00709217 1.3697e-08
-6.01476e-09 0.00709218 1.38042e-08
-4.91614e-09 0.00709218 1.37124e-08
-5.18764e-09 0.00709217 1.3698e-08
-5.39078e-09 0.00709217 1.37798e-08
-5.69194e-09 0.00709217 1.37054e-08
-5.98255e-09 0.00709217 1.37802e-08
-4.90862e-09 0.00709217 1.36663e-08
-5.14245e-09 0.00709217 1.37206e-08
-5.3969e-09 0.00709217 1.36694e-08
-5.718e-09 0.00709217 1.36271e-08
-6.01858e-09 0.00709217 1.36605e-08
-4.84214e-09 0.00709217 1.36862e-08
-5.10411e-09 0.00709217 1.3653e-08
-5.41506e-09 0.00709217 1.37255e-08
-5.81971e-09 0.00709217 1.36489e-08
-6.01952e-09 0.00709217 1.36866e-08
-4.92958e-09 0.00709217 1.36511e-08
-5.14617e-09 0.00709217 1.37058e-08
-5.37358e-09 0.00709217 1.36495e-08
-5.80524e-09 0.00709217 1.37498e-08
-6.10054e-09 0.00709217 1.35595e-08
-5.46873e-09 0.00819378 1.53309e-08
-5.58692e-09 0.00819378 1.52804e-08
-5.70076e-09 0.00819378 1.54979e-08
-5.86076e-09 0.00819378 1.52619e-08
-6.15417e-09 0.00819378 1.5346e-08
-5.32929e-09 0.00819378 1.5325e-08
-5.5257e-09 0.00819378 1.5309e-08
-5.7162e-09 0.00819378 1.53227e-08
-5.89691e-09 0.00819378 1.54647e-08
-6.22415e-09 0.00819378 1.53648e-08
-5.33129e-09 0.00819378 1.53899e-08
-5.50076e-09 0.00819378 1.53828e-08
-5.7261e-09 0.00819378 1.54017e-08
-5.96946e-09 0.00819378 1.53294e-08
-6.1171e-09 0.00819378 1.53271e-08
-5.35616e-09 0.00819378 1.53191e-08
-5.46977e-09 0.00819378 1.53007e-08
-5.75021e-09 0.00819378 1.52706e-08
-5.98895e-09 0.00819378 1.53742e-08
-6.29877e-09 0.00819378 1.53095e-08
-5.37776e-09 0.00819378 1.53334e-08
-5.47915e-09 0.00819378 1.52918e-08
-5.66354e-09 0.00819378 1.52857e-08
-6.01732e-09 0.00819377 1.52479e-08
-6.31514e-09 0.00819378 1.53623e-08
-5.55197e-09 0.00927711 1.65056e-08
-5.72358e-09 0.00927711 1.67602e-08
-5.69148e-09 0.00927711 1.67327e-08
-5.98984e-09 0.00927711 1.68865e-08
-5.95782e-09 0.00927711 1.66747e-08
-5.61215e-09 0.00927711 1.66901e-08
-5.62215e-09 0.00927711 1.67157e-08
-5.74413e-09 0.00927711 1.6741e-08
-5.99273e-09 0.00927711 1.67593e-08
-5.90096e-09 0.00927711 1.67105e-08
-5.561e-09 0.00927711 1.66466e-08
-5.65711e-09 0.00927711 1.66845e-08
-5.74607e-09 0.00927711 1.66317e-08
-6.06895e-09 0.00927711 1.67319e-08
-5.9901e-09 0.00927711 1.67191e-08
-5.45784e-09 0.00927711 1.66916e-08
-5.68697e-09 0.00927711 1.66375e-08
-5.8003e-09 0.00927711 1.6667e-08
-6.0136e-09 0.00927711 1.67097e-08
-6.17974e-09 0.00927711 1.67212e-08
-5.366e-09 0.00927711 1.65301e-08
-5.75024e-09 0.00927711 1.66874e-08
-5.78926e-09 0.00927711 1.66742e-08
-5.96056e-09 0.00927711 1.66454e-08
-6.21348e-09 0.00927711 1.66633e-08
-5.39766e-09 0.0103496 1.75181e-08
-5.46992e-09 0.0103496 1.74742e-08
-5.68345e-09 0.0103496 1.76709e-08
-5.75276e-09 0.0103496 1.76975e-08
-5.49793e-09 0.0103496 1.75807e-08
-5.48601e-09 0.0103496 1.75298e-08
-5.61941e-09 0.0103496 1.75267e-08
-5.63922e-09 0.0103496 1.75714e-08
-5.74022e-09 0.0103496 1.75556e-08
-5.8615e-09 0.0103496 1.76155e-08
-5.45857e-09 0.0103496 1.74954e-08
-5.64937e-09 0.0103496 1.75269e-08
-5.62705e-09 0.0103496 1.75033e-08
-5.76883e-09 0.0103496 1.76348e-08
-5.78661e-09 0.0103496 1.77428e-08
-5.49725e-09 0.0103496 1.74414e-08
-5.60735e-09 0.0103496 1.75495e-08
-5.58927e-09 0.0103496 1.76361e-08
-5.71998e-09 0.0103496 1.76778e-08
-5.81728e-09 0.0103496 1.76631e-08
-5.65739e-09 0.0103496 1.74667e-08
-5.49583e-09 0.0103496 1.74126e-08
-5.64482e-09 0.0103496 1.77031e-08
-5.87443e-09 0.0103496 1.76511e-08
-6.04695e-09 0.0103496 1.75819e-08
-5.25756e-09 0.0114195 1.79951e-08
-5.26101e-09 0.0114195 1.80436e-08
-5.24355e-09 0.0114195 1.77286e-08
-5.18408e-09 0.0114195 1.80176e-08
-5.28068e-09 0.0114195 1.81881e-08
-5.53113e-09 0.0114195 1.80229e-08
-5.32045e-09 0.0114195 1.80145e-08
-5.25269e-09 0.0114195 1.8034e-08
-5.29041e-09 0.0114195 1.80647e-08
-5.10036e-09 0.0114195 1.81352e-08
-5.63613e-09 0.0114195 1.79723e-08
-5.32311e-09 0.0114195 1.80954e-08
-5.31448e-09 0.0114195 1.80524e-08
-5.21942e-09 0.0114195 1.81168e-08
-5.13069e-09 0.0114195 1.80943e-08
-5.46614e-09 0.0114195 1.80029e-08
-5.33522e-09 0.0114195 1.79794e-08
-5.21317e-09 0.0114195 1.80654e-08
-5.35613e-09 0.0114195 1.8001e-08
-5.3305e-09 0.0114195 1.81174e-08
-5.30844e-09 0.0114195 1.80437e-08
-5.20414e-09 0.0114195 1.80567e-08
-5.22477e-09 0.0114195 1.79996e-08
-5.42295e-09 0.0114195 1.80981e-08
-5.3413e-09 0.0114195 1.79014e-08
-4.77728e-09 0.0124944 1.82125e-08
-4.91441e-09 0.0124944 1.8101e-08
-4.61431e-09 0.0124944 1.81217e-08
-4.58586e-09 0.0124944 1.8178e-08
-4.36533e-09 0.0124944 1.82233e-08
-5.07803e-09 0.0124944 1.81301e-08
-4.79176e-09 0.0124944 1.8159e-08
-4.66034e-09 0.0124944 1.81511e-08
-4.57203e-09 0.0124944 1.8132e-08
-4.52997e-09 0.0124944 1.81492e-08
-4.99788e-09 0.0124944 1.8131e-08
-4.83899e-09 0.0124944 1.80534e-08
-4.68341e-09 0.0124944 1.81553e-08
-4.64614e-09 0.0124944 1.81036e-08
-4.312e-09 0.0124944 1.81927e-08
-4.99071e-09 0.0124944 1.81131e-08
-4.83388e-09 0.0124944 1.81718e-08
-4.79808e-09 0.0124944 1.80157e-08
-4.58344e-09 0.0124944 1.81209e-08
-4.46711e-09 0.0124944 1.80991e-08
-5.15374e-09 0.0124944 1.80615e-08
-5.02031e-09 0.0124944 1.81862e-08
-4.69392e-09 0.0124944 1.78464e-08
-4.54655e-09 0.0124944 1.80125e-08
-4.65888e-09 0.0124944 1.81859e-08
-4.58904e-09 0.0135796 1.78269e-08
-4.04867e-09 0.0135796 1.79073e-08
-3.86247e-09 0.0135796 1.79842e-08
-3.74985e-09 0.0135796 1.75725e-08
-3.99349e-09 0.0135796 1.77063e-08
-4.31113e-09 0.0135796 1.7867e-08
-4.16359e-09 0.0135796 1.79112e-08
-3.90678e-09 0.0135796 1.77857e-08
-3.82372e-09 0.0135796 1.78578e-08
-3.56204e-09 0.0135796 1.76844e-08
-4.3696e-09 0.0135796 1.78757e-08
-4.1568e-09 0.0135796 1.78084e-08
-3.92802e-09 0.0135796 1.76377e-08
-3.85547e-09 0.0135796 1.77829e-08
-3.53851e-09 0.0135796 1.77508e-08
-4.27182e-09 0.0135796 1.76738e-08
-4.29958e-09 0.0135796 1.77505e-08
-3.86798e-09 0.0135796 1.77855e-08
-3.83835e-09 0.0135796 1.75575e-08
-3.65044e-09 0.0135796 1.76686e-08
-4.28408e-09 0.0135796 1.76248e-08
-4.32892e-09 0.0135796 1.77351e-08
-3.92932e-09 0.0135796 1.75892e-08
-3.71876e-09 0.0135796 1.76955e-08
-3.84754e-09 0.0135796 1.76112e-08
-3.54128e-09 0.0146769 1.70894e-08
-3.15639e-09 0.0146769 1.70921e-08
-3.01469e-09 0.0146769 1.71743e-08
-3.07892e-09 0.0146769 1.69429e-08
-2.32915e-09 0.0146769 1.66484e-08
-3.55878e-09 0.0146769 1.71887e-08
-3.35321e-09 0.0146769 1.69925e-08
-3.07419e-09 0.0146769 1.69956e-08
-2.82279e-09 0.0146769 1.69241e-08
-2.7735e-09 0.0146769 1.68811e-08
-3.68798e-09 0.0146769 1.69485e-08
-3.2999e-09 0.0146769 1.70466e-08
-3.0242e-09 0.0146769 1.69656e-08
-2.78104e-09 0.0146769 1.69271e-08
-2.55236e-09 0.0146769 1.68503e-08
-3.67313e-09 0.0146769 1.70697e-08
-3.27414e-09 0.0146769 1.69616e-08
-3.0218e-09 0.0146769 1.70175e-08
-2.84153e-09 0.0146769 1.68834e-08
-2.50727e-09 0.0146769 1.67245e-08
-3.66039e-09 0.0146769 1.69905e-08
-3.33004e-09 0.0146769 1.70945e-08
-2.96098e-09 0.0146769 1.71361e-08
-2.71319e-09 0.0146769 1.70638e-08
-2.31287e-09 0.0146769 1.6796e-08
-2.57475e-09 0.015784 1.59486e-08
-2.35826e-09 0.015784 1.5669e-08
-2.11653e-09 0.015784 1.55545e-08
-1.93741e-09 0.015784 1.54777e-08
-1.92504e-09 0.015784 1.57035e-08
-2.52009e-09 0.015784 1.5768e-08
-2.38679e-09 0.015784 1.5811e-08
-2.15821e-09 0.015784 1.57149e-08
-1.88351e-09 0.015784 1.56123e-08
-1.66865e-09 0.015784 1.56577e-08
-2.81227e-09 0.015784 1.58729e-08
-2.35938e-09 0.015784 1.58581e-08
-1.9738e-09 0.015784 1.5874e-08
-1.78403e-09 0.015784 1.55785e-08
-1.65086e-09 0.015784 1.56684e-08
-2.73189e-09 0.015784 1.59864e-08
-2.33186e-09 0.015784 1.60291e-08
-1.80482e-09 0.015784 1.59242e-08
-1.81811e-09 0.015784 1.5752e-08
-1.49369e-09 0.015784 1.57276e-08
-2.75294e-09 0.015784 1.62372e-08
-2.23221e-09 0.015784 1.59695e-08
-1.92819e-09 0.015784 1.58824e-08
-1.6975e-09 0.015784 1.59426e-08
-1.32668e-09 0.015784 1.58163e-08
-1.75093e-09 0.0168953 1.415e-08
-1.55269e-09 0.0168953 1.41373e-08
-1.11388e-09 0.0168953 1.40683e-08
-8.35223e-10 0.0168953 1.38739e-08
-4.35154e-10 0.0168953 1.38436e-08
-1.77344e-09 0.0168953 1.42741e-08
-1.43812e-09 0.0168953 1.43192e-08
-1.06489e-09 0.0168953 1.40843e-08
-7.91919e-10 0.0168953 1.40006e-08
-4.29033e-10 0.0168953 1.38938e-08
-1.71743e-09 0.0168953 1.43821e-08
-1.38973e-09 0.0168953 1.43275e-08
-1.04057e-09 0.0168953 1.43083e-08
-7.13877e-10 0.0168953 1.40907e-08
-3.19492e-10 0.0168953 1.38882e-08
-1.53622e-09 0.0168953 1.43699e-08
-1.44389e-09 0.0168953 1.44391e-08
-9.73443e-10 0.0168953 1.41552e-08
-6.64939e-10 0.0168953 1.41239e-08
-1.87166e-10 0.0168953 1.42073e-08
-1.22192e-09 0.0168953 1.44722e-08
-1.3947e-09 0.0168953 1.42229e-08
-9.60531e-10 0.0168953 1.45422e-08
-8.82277e-10 0.0168953 1.4218e-08
-7.3942e-11 0.0168953 1.42958e-08
-1.37953e-09 0.0180031 1.2882e-08
-5.24672e-10 0.0180031 1.27498e-08
-1.33445e-11 0.0180031 1.26702e-08
2.84663e-10 0.0180031 1.2147e-08
8.52456e-10 0.0180031 1.23482e-08
-1.22064e-09 0.0180031 1.25466e-08
-4.56604e-10 0.0180031 1.26441e-08
-7.41256e-11 0.0180031 1.24823e-08
2.23177e-10 0.0180031 1.23261e-08
8.08194e-10 0.0180031 1.23659e-08
-8.10724e-10 0.0180031 1.26604e-08
-5.09097e-10 0.0180031 1.2618e-08
-1.85105e-11 0.0180031 1.26468e-08
3.68637e-10 0.0180031 1.24172e-08
8.73116e-10 0.0180031 1.24749e-08
-5.26247e-10 0.0180031 1.25747e-08
-5.72253e-10 0.0180031 1.26763e-08
-9.60325e-11 0.0180031 1.26779e-08
3.55183e-10 0.0180031 1.27259e-08
1.00713e-09 0.0180031 1.25119e-08
-6.1251e-10 0.0180031 1.27422e-08
-5.0366e-10 0.0180031 1.23658e-08
-2.11163e-10 0.0180031 1.24273e-08
5.3783e-10 0.0180031 1.26727e-08
9.38575e-10 0.0180031 1.2696e-08
4.03064e-11 0.0191008 1.12573e-08
1.44523e-10 0.0191008 1.11545e-08
9.71057e-10 0.0191008 1.11695e-08
1.10798e-09 0.0191008 1.09533e-08
1.656e-09 0.0191008 1.09641e-08
-3.24596e-11 0.0191008 1.11791e-08
3.85124e-10 0.0191008 1.10745e-08
8.46518e-10 0.0191008 1.10883e-08
1.11625e-09 0.0191008 1.10134e-08
1.79573e-09 0.0191008 1.09866e-08
3.25707e-10 0.0191008 1.08757e-08
3.92159e-10 0.0191008 1.09032e-08
7.71688e-10 0.0191008 1.08606e-08
1.3238e-09 0.0191008 1.10995e-08
1.7018e-09 0.0191008 1.10418e-08
5.05662e-10 0.0191008 1.07722e-08
3.85201e-10 0.0191008 1.07705e-08
8.29634e-10 0.0191008 1.10106e-08
1.22486e-09 0.0191008 1.09179e-08
1.74137e-09 0.0191008 1.10853e-08
7.55811e-10 0.0191008 1.08662e-08
3.24711e-10 0.0191008 1.08635e-08
1.07512e-09 0.0191008 1.07734e-08
1.33236e-09 0.0191008 1.10363e-08
1.27257e-09 0.0191008 1.10737e-08
1.52399e-10 0.0201856 9.58471e-09
1.24347e-09 0.0201856 9.75438e-09
1.56624e-09 0.0201856 9.97196e-09
1.72418e-09 0.0201856 9.6073e-09
2.76561e-09 0.0201856 9.65364e-09
1.10796e-09 0.0201856 9.69262e-09
1.07898e-09 0.0201856 9.48963e-09
1.59562e-09 0.0201856 9.75603e-09
1.92088e-09 0.0201856 9.59096e-09
2.34915e-09 0.0201856 9.62727e-09
7.43557e-10 0.0201856 9.53394e-09
1.26139e-09 0.0201856 9.43137e-09
1.51449e-09 0.0201856 9.37741e-09
2.02942e-09 0.0201856 9.56048e-09
2.72235e-09 0.0201856 9.56608e-09
1.06667e-09 0.0201856 9.41157e-09
1.08055e-09 0.0201856 9.30318e-09
1.58713e-09 0.0201856 9.40933e-09
2.17587e-09 0.0201856 9.16966e-09
2.22879e-09 0.0201856 9.61352e-09
7.51117e-10 0.0201856 9.49572e-09
1.3165e-09 0.0201856 9.44987e-09
1.59474e-09 0.0201856 9.37359e-09
1.8052e-09 0.0201856 9.23695e-09
2.22411e-09 0.0201856 9.29803e-09
2.16056e-09 0.0212608 8.31799e-09
1.88095e-09 0.0212608 8.59167e-09
1.96616e-09 0.0212608 8.57971e-09
2.55104e-09 0.0212608 8.36875e-09
2.91933e-09 0.0212608 8.71291e-09
1.58539e-09 0.0212608 8.54724e-09
1.89523e-09 0.0212608 8.4971e-09
2.2483e-09 0.0212608 8.49184e-09
2.41509e-09 0.0212608 8.71112e-09
2.88061e-09 0.0212608 8.3515e-09
1.62289e-09 0.0212608 8.38734e-09
1.88124e-09 0.0212608 8.41261e-09
2.1985e-09 0.0212608 8.42383e-09
2.51135e-09 0.0212608 8.18163e-09
3.12429e-09 0.0212608 8.36946e-09
1.58889e-09 0.0212608 8.3157e-09
1.80999e-09 0.0212608 8.35972e-09
2.0502e-09 0.0212608 8.23475e-09
2.55123e-09 0.0212608 8.54072e-09
3.19168e-09 0.0212608 8.20459e-09
1.36549e-09 0.0212608 8.43075e-09
1.66836e-09 0.0212608 7.9797e-09
2.38841e-09 0.0212608 8.04008e-09
2.59258e-09 0.0212608 7.93302e-09
3.29481e-09 0.0212608 8.50876e-09
2.38739e-09 0.0223371 8.28495e-09
2.45576e-09 0.0223371 7.89555e-09
2.64687e-09 0.0223371 7.99857e-09
2.21435e-09 0.0223371 8.24294e-09
2.44375e-09 0.0223371 8.17385e-09
2.44976e-09 0.0223371 8.0075e-09
2.38761e-09 0.0223371 8.03725e-09
2.46186e-09 0.0223371 8.02208e-09
2.53169e-09 0.0223371 7.94182e-09
2.93117e-09 0.0223371 8.04089e-09
2.096e-09 0.0223371 7.84189e-09
2.16626e-09 0.0223371 7.9873e-09
2.43288e-09 0.0223371 7.82291e-09
2.72122e-09 0.0223371 7.87451e-09
3.00135e-09 0.0223371 7.81117e-09
2.06819e-09 0.0223371 7.94501e-09
2.12752e-09 0.0223371 7.62145e-09
2.44078e-09 0.0223371 7.98743e-09
2.60551e-09 0.0223371 7.81272e-09
2.83877e-09 0.0223371 7.95696e-09
2.00013e-09 0.0223371 7.77086e-09
2.05115e-09 0.0223371 7.82789e-09
2.50588e-09 0.0223371 7.60419e-09
2.49271e-09 0.0223371 7.78709e-09
2.73585e-09 0.0223371 7.6121e-09
2.4081e-09 0.0234304 7.97819e-09
2.53909e-09 0.0234304 7.77882e-09
2.99225e-09 0.0234304 8.32212e-09
2.36188e-09 0.0234304 8.45478e-09
2.64136e-09 0.0234304 8.5927e-09
2.59075e-09 0.0234304 8.11751e-09
2.53291e-09 0.0234304 8.16669e-09
2.58685e-09 0.0234304 8.09897e-09
2.48172e-09 0.0234304 8.40635e-09
2.86477e-09 0.0234304 8.37917e-09
2.35254e-09 0.0234304 8.19405e-09
2.46822e-09 0.0234304 8.25607e-09
2.405e-09 0.0234304 8.19426e-09
2.54278e-09 0.0234304 8.19087e-09
3.08249e-09 0.0234304 8.23454e-09
2.30732e-09 0.0234304 8.14363e-09
2.36439e-09 0.0234304 8.2379e-09
2.43176e-09 0.0234304 8.05279e-09
2.47283e-09 0.0234304 8.11039e-09
2.74489e-09 0.0234304 8.06402e-09
1.95397e-09 0.0234304 8.29846e-09
2.37965e-09 0.0234304 8.0042e-09
2.66336e-09 0.0234304 8.16705e-09
2.55652e-09 0.0234304 8.18455e-09
2.24252e-09 0.0234304 8.21648e-09
3.22654e-09 0.0245578 8.7373e-09
2.63614e-09 0.0245578 8.86353e-09
2.54872e-09 0.0245578 8.80264e-09
2.07882e-09 0.0245578 9.03819e-09
2.00291e-09 0.0245578 9.51519e-09
2.67438e-09 0.0245578 9.27959e-09
2.57885e-09 0.0245578 9.0173e-09
2.3174e-09 0.0245578 8.88069e-09
2.22134e-09 0.0245578 9.27567e-09
1.95551e-09 0.0245578 9.47468e-09
2.58893e-09 0.0245578 9.19632e-09
2.39611e-09 0.0245578 9.11972e-09
2.3564e-09 0.0245578 9.37467e-09
2.05844e-09 0.0245578 9.23372e-09
2.67274e-09 0.0245578 9.32934e-09
2.21167e-09 0.0245578 9.13728e-09
2.53555e-09 0.0245578 9.22332e-09
2.29911e-09 0.0245578 9.25409e-09
2.17404e-09 0.0245578 9.2019e-09
2.07481e-09 0.0245578 9.48563e-09
2.95289e-09 0.0245578 9.16728e-09
2.33713e-09 0.0245578 9.07804e-09
2.35769e-09 0.0245578 8.85631e-09
2.08549e-09 0.0245578 9.42656e-09
1.69323e-09 0.0245578 9.31125e-09
3.27628e-09 0.0257316 1.07144e-08
2.02591e-09 0.0257316 1.07198e-08
1.95571e-09 0.0257316 1.06532e-08
1.79188e-09 0.0257316 1.0756e-08
1.45838e-09 0.0257316 1.07945e-08
2.99591e-09 0.0257316 1.07391e-08
2.25525e-09 0.0257316 1.07104e-08
2.10854e-09 0.0257316 1.09262e-08
1.60363e-09 0.0257316 1.08675e-08
1.17412e-09 0.0257316 1.10685e-08
2.28793e-09 0.0257316 1.09177e-08
2.30498e-09 0.0257316 1.09469e-08
2.08769e-09 0.0257316 1.09454e-08
1.41827e-09 0.0257316 1.12041e-08
1.7166e-09 0.0257316 1.10518e-08
2.58801e-09 0.0257316 1.08062e-08
2.23424e-09 0.0257316 1.07968e-08