<?xml version="1.0"?>
<VTKFile type="UnstructuredGrid" version="0.1" byte_order="LittleEndian">
<UnstructuredGrid>
<Piece NumberOfPoints="1025" NumberOfCells="640">
<Points>
<DataArray type="Float32" NumberOfComponents="3" format="ascii">
0 0 0
0.025 0 0
0.05 0 0
0.075 0 0
0.1 0 0
0 0.025 0
0.025 0.025 0
0.05 0.025 0
0.075 0.025 0
0.1 0.025 0
0 0.05 0
0.025 0.05 0
0.05 0.05 0
0.075 0.05 0
0.1 0.05 0
0 0.075 0
0.025 0.075 0
0.05 0.075 0
0.075 0.075 0
0.1 0.075 0
0 0.1 0
0.025 0.1 0
0.05 0.1 0
0.075 0.1 0
0.1 0.1 0
0 0 0.025
0.025 0 0.025
0.05 0 0.025
0.075 0 0.025
0.1 0 0.025
0 0.025 0.025
0.025 0.025 0.025
0.05 0.025 0.025
0.075 0.025 0.025
0.1 0.025 0.025
0 0.05 0.025
0.025 0.05 0.025
0.05 0.05 0.025
0.075 0.05 0.025
0.1 0.05 0.025
0 0.075 0.025
0.025 0.075 0.025
0.05 0.075 0.025
0.075 0.075 0.025
0.1 0.075 0.025
0 0.1 0.025
0.025 0.1 0.025
0.05 0.1 0.025
0.075 0.1 0.025
0.1 0.1 0.025
0 0 0.05
0.025 0 0.05
0.05 0 0.05
0.075 0 0.05
0.1 0 0.05
0 0.025 0.05
0.025 0.025 0.05
0.05 0.025 0.05
0.075 0.025 0.05
0.1 0.025 0.05
0 0.05 0.05
0.025 0.05 0.05
0.05 0.05 0.05
0.075 0.05 0.05
0.1 0.05 0.05
0 0.075 0.05
0.025 0.075 0.05
0.05 0.075 0.05
0.075 0.075 0.05
0.1 0.075 0.05
0 0.1 0.05
0.025 0.1 0.05
0.05 0.1 0.05
0.075 0.1 0.05
0.1 0.1 0.05
0 0 0.075
0.025 0 0.075
0.05 0 0.075
0.075 0 0.075
0.1 0 0.075
0 0.025 0.075
0.025 0.025 0.075
0.05 0.025 0.075
0.075 0.025 0.075
0.1 0.025 0.075
0 0.05 0.075
0.025 0.05 0.075
0.05 0.05 0.075
0.075 0.05 0.075
0.1 0.05 0.075
0 0.075 0.075
0.025 0.075 0.075
0.05 0.075 0.075
0.075 0.075 0.075
0.1 0.075 0.075
0 0.1 0.075
0.025 0.1 0.075
0.05 0.1 0.075
0.075 0.1 0.075
0.1 0.1 0.075
0 0 0.1
0.025 0 0.1
0.05 0 0.1
0.075 0 0.1
0.1 0 0.1
0 0.025 0.1
0.025 0.025 0.1
0.05 0.025 0.1
0.075 0.025 0.1
0.1 0.025 0.1
0 0.05 0.1
0.025 0.05 0.1
0.05 0.05 0.1
0.075 0.05 0.1
0.1 0.05 0.1
0 0.075 0.1
0.025 0.075 0.1
0.05 0.075 0.1
0.075 0.075 0.1
0.1 0.075 0.1
0 0.1 0.1
0.025 0.1 0.1
0.05 0.1 0.1
0.075 0.1 0.1
0.1 0.1 0.1
0 0 0.125
0.025 0 0.125
0.05 0 0.125
0.075 0 0.125
0.1 0 0.125
0 0.025 0.125
0.025 0.025 0.125
0.05 0.025 0.125
0.075 0.025 0.125
0.1 0.025 0.125
0 0.05 0.125
0.025 0.05 0.125
0.05 0.05 0.125
0.075 0.05 0.125
0.1 0.05 0.125
0 0.075 0.125
0.025 0.075 0.125
0.05 0.075 0.125
0.075 0.075 0.125
0.1 0.075 0.125
0 0.1 0.125
0.025 0.1 0.125
0.05 0.1 0.125
0.075 0.1 0.125
0.1 0.1 0.125
0 0 0.15
0.025 0 0.15
0.05 0 0.15
0.075 0 0.15
0.1 0 0.15
0 0.025 0.15
0.025 0.025 0.15
0.05 0.025 0.15
0.075 0.025 0.15
0.1 0.025 0.15
0 0.05 0.15
0.025 0.05 0.15
0.05 0.05 0.15
0.075 0.05 0.15
0.1 0.05 0.15
0 0.075 0.15
0.025 0.075 0.15
0.05 0.075 0.15
0.075 0.075 0.15
0.1 0.075 0.15
0 0.1 0.15
0.025 0.1 0.15
0.05 0.1 0.15
0.075 0.1 0.15
0.1 0.1 0.15
0 0 0.175
0.025 0 0.175
0.05 0 0.175
0.075 0 0.175
0.1 0 0.175
0 0.025 0.175
0.025 0.025 0.175
0.05 0.025 0.175
0.075 0.025 0.175
0.1 0.025 0.175
0 0.05 0.175
0.025 0.05 0.175
0.05 0.05 0.175
0.075 0.05 0.175
0.1 0.05 0.175
0 0.075 0.175
0.025 0.075 0.175
0.05 0.075 0.175
0.075 0.075 0.175
0.1 0.075 0.175
0 0.1 0.175
0.025 0.1 0.175
0.05 0.1 0.175
0.075 0.1 0.175
0.1 0.1 0.175
0 0 0.2
0.025 0 0.2
0.05 0 0.2
0.075 0 0.2
0.1 0 0.2
0 0.025 0.2
0.025 0.025 0.2
0.05 0.025 0.2
0.075 0.025 0.2
0.1 0.025 0.2
0 0.05 0.2
0.025 0.05 0.2
0.05 0.05 0.2
0.075 0.05 0.2
0.1 0.05 0.2
0 0.075 0.2
0.025 0.075 0.2
0.05 0.075 0.2
0.075 0.075 0.2
0.1 0.075 0.2
0 0.1 0.2
0.025 0.1 0.2
0.05 0.1 0.2
0.075 0.1 0.2
0.1 0.1 0.2
0 0 0.225
0.025 0 0.225
0.05 0 0.225
0.075 0 0.225
0.1 0 0.225
0 0.025 0.225
0.025 0.025 0.225
0.05 0.025 0.225
0.075 0.025 0.225
0.1 0.025 0.225
0 0.05 0.225
0.025 0.05 0.225
0.05 0.05 0.225
0.075 0.05 0.225
0.1 0.05 0.225
0 0.075 0.225
0.025 0.075 0.225
0.05 0.075 0.225
0.075 0.075 0.225
0.1 0.075 0.225
0 0.1 0.225
0.025 0.1 0.225
0.05 0.1 0.225
0.075 0.1 0.225
0.1 0.1 0.225
0 0 0.25
0.025 0 0.25
0.05 0 0.25
0.075 0 0.25
0.1 0 0.25
0 0.025 0.25
0.025 0.025 0.25
0.05 0.025 0.25
0.075 0.025 0.25
0.1 0.025 0.25
0 0.05 0.25
0.025 0.05 0.25
0.05 0.05 0.25
0.075 0.05 0.25
0.1 0.05 0.25
0 0.075 0.25
0.025 0.075 0.25
0.05 0.075 0.25
0.075 0.075 0.25
0.1 0.075 0.25
0 0.1 0.25
0.025 0.1 0.25
0.05 0.1 0.25
0.075 0.1 0.25
0.1 0.1 0.25
0 0 0.275
0.025 0 0.275
0.05 0 0.275
0.075 0 0.275
0.1 0 0.275
0 0.025 0.275
0.025 0.025 0.275
0.05 0.025 0.275
0.075 0.025 0.275
0.1 0.025 0.275
0 0.05 0.275
0.025 0.05 0.275
0.05 0.05 0.275
0.075 0.05 0.275
0.1 0.05 0.275
0 0.075 0.275
0.025 0.075 0.275
0.05 0.075 0.275
0.075 0.075 0.275
0.1 0.075 0.275
0 0.1 0.275
0.025 0.1 0.275
0.05 0.1 0.275
0.075 0.1 0.275
0.1 0.1 0.275
0 0 0.3
0.025 0 0.3
0.05 0 0.3
0.075 0 0.3
0.1 0 0.3
0 0.025 0.3
0.025 0.025 0.3
0.05 0.025 0.3
0.075 0.025 0.3
0.1 0.025 0.3
0 0.05 0.3
0.025 0.05 0.3
0.05 0.05 0.3
0.075 0.05 0.3
0.1 0.05 0.3
0 0.075 0.3
0.025 0.075 0.3
0.05 0.075 0.3
0.075 0.075 0.3
0.1 0.075 0.3
0 0.1 0.3
0.025 0.1 0.3
0.05 0.1 0.3
0.075 0.1 0.3
0.1 0.1 0.3
0 0 0.325
0.025 0 0.325
0.05 0 0.325
0.075 0 0.325
0.1 0 0.325
0 0.025 0.325
0.025 0.025 0.325
0.05 0.025 0.325
0.075 0.025 0.325
0.1 0.025 0.325
0 0.05 0.325
0.025 0.05 0.325
0.05 0.05 0.325
0.075 0.05 0.325
0.1 0.05 0.325
0 0.075 0.325
0.025 0.075 0.325
0.05 0.075 0.325
0.075 0.075 0.325
0.1 0.075 0.325
0 0.1 0.325
0.025 0.1 0.325
0.05 0.1 0.325
0.075 0.1 0.325
0.1 0.1 0.325
0 0 0.35
0.025 0 0.35
0.05 0 0.35
0.075 0 0.35
0.1 0 0.35
0 0.025 0.35
0.025 0.025 0.35
0.05 0.025 0.35
0.075 0.025 0.35
0.1 0.025 0.35
0 0.05 0.35
0.025 0.05 0.35
0.05 0.05 0.35
0.075 0.05 0.35
0.1 0.05 0.35
0 0.075 0.35
0.025 0.075 0.35
0.05 0.075 0.35
0.075 0.075 0.35
0.1 0.075 0.35
0 0.1 0.35
0.025 0.1 0.35
0.05 0.1 0.35
0.075 0.1 0.35
0.1 0.1 0.35
0 0 0.375
0.025 0 0.375
0.05 0 0.375
0.075 0 0.375
0.1 0 0.375
0 0.025 0.375
0.025 0.025 0.375
0.05 0.025 0.375
0.075 0.025 0.375
0.1 0.025 0.375
0 0.05 0.375
0.025 0.05 0.375
0.05 0.05 0.375
0.075 0.05 0.375
0.1 0.05 0.375
0 0.075 0.375
0.025 0.075 0.375
0.05 0.075 0.375
0.075 0.075 0.375
0.1 0.075 0.375
0 0.1 0.375
0.025 0.1 0.375
0.05 0.1 0.375
0.075 0.1 0.375
0.1 0.1 0.375
0 0 0.4
0.025 0 0.4
0.05 0 0.4
0.075 0 0.4
0.1 0 0.4
0 0.025 0.4
0.025 0.025 0.4
0.05 0.025 0.4
0.075 0.025 0.4
0.1 0.025 0.4
0 0.05 0.4
0.025 0.05 0.4
0.05 0.05 0.4
0.075 0.05 0.4
0.1 0.05 0.4
0 0.075 0.4
0.025 0.075 0.4
0.05 0.075 0.4
0.075 0.075 0.4
0.1 0.075 0.4
0 0.1 0.4
0.025 0.1 0.4
0.05 0.1 0.4
0.075 0.1 0.4
0.1 0.1 0.4
0 0 0.425
0.025 0 0.425
0.05 0 0.425
0.075 0 0.425
0.1 0 0.425
0 0.025 0.425
0.025 0.025 0.425
0.05 0.025 0.425
0.075 0.025 0.425
0.1 0.025 0.425
0 0.05 0.425
0.025 0.05 0.425
0.05 0.05 0.425
0.075 0.05 0.425
0.1 0.05 0.425
0 0.075 0.425
0.025 0.075 0.425
0.05 0.075 0.425
0.075 0.075 0.425
0.1 0.075 0.425
0 0.1 0.425
0.025 0.1 0.425
0.05 0.1 0.425
0.075 0.1 0.425
0.1 0.1 0.425
0 0 0.45
0.025 0 0.45
0.05 0 0.45
0.075 0 0.45
0.1 0 0.45
0 0.025 0.45
0.025 0.025 0.45
0.05 0.025 0.45
0.075 0.025 0.45
0.1 0.025 0.45
0 0.05 0.45
0.025 0.05 0.45
0.05 0.05 0.45
0.075 0.05 0.45
0.1 0.05 0.45
0 0.075 0.45
0.025 0.075 0.45
0.05 0.075 0.45
0.075 0.075 0.45
0.1 0.075 0.45
0 0.1 0.45
0.025 0.1 0.45
0.05 0.1 0.45
0.075 0.1 0.45
0.1 0.1 0.45
0 0 0.475
0.025 0 0.475
0.05 0 0.475
0.075 0 0.475
0.1 0 0.475
0 0.025 0.475
0.025 0.025 0.475
0.05 0.025 0.475
0.075 0.025 0.475
0.1 0.025 0.475
0 0.05 0.475
0.025 0.05 0.475
0.05 0.05 0.475
0.075 0.05 0.475
0.1 0.05 0.475
0 0.075 0.475
0.025 0.075 0.475
0.05 0.075 0.475
0.075 0.075 0.475
0.1 0.075 0.475
0 0.1 0.475
0.025 0.1 0.475
0.05 0.1 0.475
0.075 0.1 0.475
0.1 0.1 0.475
0 0 0.5
0.025 0 0.5
0.05 0 0.5
0.075 0 0.5
0.1 0 0.5
0 0.025 0.5
0.025 0.025 0.5
0.05 0.025 0.5
0.075 0.025 0.5
0.1 0.025 0.5
0 0.05 0.5
0.025 0.05 0.5
0.05 0.05 0.5
0.075 0.05 0.5
0.1 0.05 0.5
0 0.075 0.5
0.025 0.075 0.5
0.05 0.075 0.5
0.075 0.075 0.5
0.1 0.075 0.5
0 0.1 0.5
0.025 0.1 0.5
0.05 0.1 0.5
0.075 0.1 0.5
0.1 0.1 0.5
0 0 0.525
0.025 0 0.525
0.05 0 0.525
0.075 0 0.525
0.1 0 0.525
0 0.025 0.525
0.025 0.025 0.525
0.05 0.025 0.525
0.075 0.025 0.525
0.1 0.025 0.525
0 0.05 0.525
0.025 0.05 0.525
0.05 0.05 0.525
0.075 0.05 0.525
0.1 0.05 0.525
0 0.075 0.525
0.025 0.075 0.525
0.05 0.075 0.525
0.075 0.075 0.525
0.1 0.075 0.525
0 0.1 0.525
0.025 0.1 0.525
0.05 0.1 0.525
0.075 0.1 0.525
0.1 0.1 0.525
0 0 0.55
0.025 0 0.55
0.05 0 0.55
0.075 0 0.55
0.1 0 0.55
0 0.025 0.55
0.025 0.025 0.55
0.05 0.025 0.55
0.075 0.025 0.55
0.1 0.025 0.55
0 0.05 0.55
0.025 0.05 0.55
0.05 0.05 0.55
0.075 0.05 0.55
0.1 0.05 0.55
0 0.075 0.55
0.025 0.075 0.55
0.05 0.075 0.55
0.075 0.075 0.55
0.1 0.075 0.55
0 0.1 0.55
0.025 0.1 0.55
0.05 0.1 0.55
0.075 0.1 0.55
0.1 0.1 0.55
0 0 0.575
0.025 0 0.575
0.05 0 0.575
0.075 0 0.575
0.1 0 0.575
0 0.025 0.575
0.025 0.025 0.575
0.05 0.025 0.575
0.075 0.025 0.575
0.1 0.025 0.575
0 0.05 0.575
0.025 0.05 0.575
0.05 0.05 0.575
0.075 0.05 0.575
0.1 0.05 0.575
0 0.075 0.575
0.025 0.075 0.575
0.05 0.075 0.575
0.075 0.075 0.575
0.1 0.075 0.575
0 0.1 0.575
0.025 0.1 0.575
0.05 0.1 0.575
0.075 0.1 0.575
0.1 0.1 0.575
0 0 0.6
0.025 0 0.6
0.05 0 0.6
0.075 0 0.6
0.1 0 0.6
0 0.025 0.6
0.025 0.025 0.6
0.05 0.025 0.6
0.075 0.025 0.6
0.1 0.025 0.6
0 0.05 0.6
0.025 0.05 0.6
0.05 0.05 0.6
0.075 0.05 0.6
0.1 0.05 0.6
0 0.075 0.6
0.025 0.075 0.6
0.05 0.075 0.6
0.075 0.075 0.6
0.1 0.075 0.6
0 0.1 0.6
0.025 0.1 0.6
0.05 0.1 0.6
0.075 0.1 0.6
0.1 0.1 0.6
0 0 0.625
0.025 0 0.625
0.05 0 0.625
0.075 0 0.625
0.1 0 0.625
0 0.025 0.625
0.025 0.025 0.625
0.05 0.025 0.625
0.075 0.025 0.625
0.1 0.025 0.625
0 0.05 0.625
0.025 0.05 0.625
0.05 0.05 0.625
0.075 0.05 0.625
0.1 0.05 0.625
0 0.075 0.625
0.025 0.075 0.625
0.05 0.075 0.625
0.075 0.075 0.625
0.1 0.075 0.625
0 0.1 0.625
0.025 0.1 0.625
0.05 0.1 0.625
0.075 0.1 0.625
0.1 0.1 0.625
0 0 0.65
0.025 0 0.65
0.05 0 0.65
0.075 0 0.65
0.1 0 0.65
0 0.025 0.65
0.025 0.025 0.65
0.05 0.025 0.65
0.075 0.025 0.65
0.1 0.025 0.65
0 0.05 0.65
0.025 0.05 0.65
0.05 0.05 0.65
0.075 0.05 0.65
0.1 0.05 0.65
0 0.075 0.65
0.025 0.075 0.65
0.05 0.075 0.65
0.075 0.075 0.65
0.1 0.075 0.65
0 0.1 0.65
0.025 0.1 0.65
0.05 0.1 0.65
0.075 0.1 0.65
0.1 0.1 0.65
0 0 0.675
0.025 0 0.675
0.05 0 0.675
0.075 0 0.675
0.1 0 0.675
[...]
<PointData Vectors="Displacement">
<DataArray type="Float32" Name="Displacement" NumberOfComponents="3" format="ascii">
0 0 0
0 0 0
0 0 0
0 0 0
0 0 0
0 0 0
0 0 0
0 0 0
0 0 0
0 0 0
0 0 0
0 0 0
0 0 0
0 0 0
0 0 0
0 0 0
0 0 0
0 0 0
0 0 0
0 0 0
0 0 0
0 0 0
0 0 0
0 0 0
0 0 0
-1.85375e-10 0.00126597 -2.87727e-10
-1.23287e-10 0.00126597 -2.96989e-10
-1.00527e-10 0.00126597 -3.06549e-10
-6.02795e-11 0.00126597 -2.99721e-10
2.97897e-11 0.00126597 -3.2017e-10
-2.11512e-10 0.00126597 -3.00768e-10
-1.33323e-10 0.00126597 -3.12722e-10
-9.25807e-11 0.00126597 -3.10735e-10
-4.89596e-11 0.00126597 -3.04208e-10
3.7949e-11 0.00126597 -3.04988e-10
-1.86475e-10 0.00126597 -3.2482e-10
-1.30918e-10 0.00126597 -3.05616e-10
-9.54224e-11 0.00126597 -3.12974e-10
-4.82274e-11 0.00126597 -2.99106e-10
3.60031e-11 0.00126597 -2.98792e-10
-1.55542e-10 0.00126597 -3.01766e-10
-1.24099e-10 0.00126597 -3.15447e-10
-9.3184e-11 0.00126597 -2.93211e-10
-5.97308e-11 0.00126597 -2.84568e-10
2.72855e-12 0.00126597 -2.78717e-10
-1.48922e-10 0.00126597 -3.08732e-10
-1.1842e-10 0.00126597 -2.83629e-10
-9.79999e-11 0.00126597 -2.83393e-10
-6.88306e-11 0.00126597 -2.71504e-10
-2.97409e-11 0.00126597 -2.67426e-10
-2.89405e-10 0.00253184 -6.06262e-10
-2.79196e-10 0.00253184 -5.81962e-10
-1.64293e-10 0.00253184 -5.88562e-10
-1.28998e-10 0.00253184 -6.16381e-10
-6.24784e-11 0.00253184 -6.81344e-10
-3.16686e-10 0.00253184 -6.16436e-10
-2.26166e-10 0.00253184 -6.13034e-10
-1.91095e-10 0.00253184 -5.97458e-10
-1.10795e-10 0.00253184 -6.04573e-10
2.22383e-12 0.00253184 -6.13959e-10
-2.86883e-10 0.00253184 -6.36396e-10
-2.32952e-10 0.00253184 -6.18667e-10
-1.92118e-10 0.00253184 -6.38303e-10
-1.37373e-10 0.00253184 -5.80643e-10
-2.30048e-11 0.00253184 -5.76077e-10
-2.15387e-10 0.00253184 -6.28045e-10
-2.33957e-10 0.00253184 -6.18434e-10
-1.77951e-10 0.00253184 -6.08738e-10
-1.55475e-10 0.00253184 -5.78264e-10
-7.31384e-11 0.00253184 -6.0565e-10
-2.80377e-10 0.00253184 -6.1371e-10
-1.86781e-10 0.00253184 -6.34702e-10
-2.00167e-10 0.00253184 -5.75586e-10
-1.44698e-10 0.00253184 -6.05025e-10
-1.28818e-10 0.00253184 -6.1449e-10
-5.17666e-10 0.00379752 -8.81118e-10
-2.86713e-10 0.00379752 -8.79037e-10
-2.6121e-10 0.00379752 -8.17377e-10
-2.90729e-10 0.00379752 -8.17576e-10
-2.90077e-11 0.00379752 -8.49604e-10
-3.94151e-10 0.00379752 -8.809e-10
-3.44911e-10 0.00379752 -8.61943e-10
-2.63571e-10 0.00379752 -8.73614e-10
-2.33652e-10 0.00379752 -8.23695e-10
-1.0486e-10 0.00379752 -8.77384e-10
-3.71648e-10 0.00379752 -8.97421e-10
-3.22513e-10 0.00379752 -9.03981e-10
-2.74517e-10 0.00379752 -8.6613e-10
-2.01265e-10 0.00379752 -8.67816e-10
-1.41527e-10 0.00379752 -8.71401e-10
-3.33484e-10 0.00379752 -9.43495e-10
-2.90936e-10 0.00379752 -9.03667e-10
-2.72891e-10 0.00379752 -8.95747e-10
-2.31816e-10 0.00379752 -8.6762e-10
-2.08495e-10 0.00379752 -8.68998e-10
-2.95656e-10 0.00379752 -9.34607e-10
-3.15005e-10 0.00379752 -9.13667e-10
-2.44421e-10 0.00379752 -9.74928e-10
-2.64336e-10 0.00379752 -8.91995e-10
-1.97649e-10 0.00379752 -9.1542e-10
-4.24767e-10 0.00506291 -1.06256e-09
-4.10976e-10 0.00506291 -1.08961e-09
-3.47096e-10 0.00506291 -1.12732e-09
-3.81679e-10 0.00506291 -1.0644e-09
-2.08727e-10 0.00506291 -1.05637e-09
-4.78369e-10 0.00506291 -1.12587e-09
-4.18826e-10 0.00506291 -1.14075e-09
-3.63534e-10 0.00506291 -1.11652e-09
-3.44474e-10 0.00506291 -1.09092e-09
-2.20967e-10 0.00506291 -1.04968e-09
-5.05642e-10 0.00506291 -1.1658e-09
-3.99381e-10 0.00506291 -1.13867e-09
-3.26674e-10 0.00506291 -1.1471e-09
-3.33197e-10 0.00506291 -1.09176e-09
-2.33405e-10 0.00506291 -1.11565e-09
-3.68708e-10 0.00506291 -1.16474e-09
-3.8294e-10 0.00506291 -1.14545e-09
-3.54912e-10 0.00506291 -1.16669e-09
-3.14547e-10 0.00506291 -1.1071e-09
-2.24658e-10 0.00506291 -1.12513e-09
-4.41832e-10 0.00506291 -1.18773e-09
-3.47568e-10 0.00506291 -1.19651e-09
-3.18533e-10 0.00506291 -1.15198e-09
-2.96687e-10 0.00506291 -1.15386e-09
-3.68139e-10 0.00506291 -1.15968e-09
-5.95337e-10 0.00632792 -1.27338e-09
-5.09378e-10 0.00632792 -1.20894e-09
-4.85085e-10 0.00632792 -1.36157e-09
-4.35753e-10 0.00632792 -1.20756e-09
-2.78088e-10 0.00632792 -1.22178e-09
-5.44014e-10 0.00632792 -1.32294e-09
-4.99862e-10 0.00632792 -1.2458e-09
-4.29827e-10 0.00632792 -1.34916e-09
-4.13471e-10 0.00632792 -1.24555e-09
-4.23664e-10 0.00632792 -1.22413e-09
-4.91215e-10 0.00632792 -1.29391e-09
-4.97278e-10 0.00632792 -1.33316e-09
-3.87741e-10 0.00632792 -1.27766e-09
-4.06697e-10 0.00632792 -1.22399e-09
-4.19385e-10 0.00632792 -1.20282e-09
-4.6304e-10 0.00632792 -1.32308e-09
-4.48532e-10 0.00632792 -1.33469e-09
-3.84859e-10 0.00632792 -1.2417e-09
-3.84617e-10 0.00632792 -1.30517e-09
-3.70496e-10 0.00632792 -1.29561e-09
-3.21689e-10 0.00632792 -1.29893e-09
-3.94414e-10 0.00632792 -1.22292e-09
-3.74993e-10 0.00632792 -1.25154e-09
-3.73896e-10 0.00632792 -1.31413e-09
-2.17254e-10 0.00632792 -1.25106e-09
-5.96318e-10 0.00759246 -1.42082e-09
-6.76675e-10 0.00759245 -1.4331e-09
-5.39483e-10 0.00759246 -1.50082e-09
-4.64281e-10 0.00759245 -1.45832e-09
-3.39563e-10 0.00759245 -1.19688e-09
-7.54107e-10 0.00759246 -1.38744e-09
-5.87731e-10 0.00759246 -1.45385e-09
-4.82032e-10 0.00759245 -1.35479e-09
-4.59691e-10 0.00759245 -1.31188e-09
-4.05604e-10 0.00759245 -1.34245e-09
-6.11617e-10 0.00759246 -1.36876e-09
-5.37185e-10 0.00759245 -1.34911e-09
-4.34363e-10 0.00759245 -1.43445e-09
-4.53771e-10 0.00759245 -1.42298e-09
-5.98062e-10 0.00759245 -1.35538e-09
-5.23869e-10 0.00759246 -1.45507e-09
-4.72389e-10 0.00759245 -1.41001e-09
-4.71503e-10 0.00759245 -1.36683e-09
-4.55753e-10 0.00759245 -1.41117e-09
-3.87484e-10 0.00759245 -1.34803e-09
-4.69734e-10 0.00759245 -1.41075e-09
-4.66531e-10 0.00759245 -1.50158e-09
-4.26491e-10 0.00759245 -1.34025e-09
-4.9139e-10 0.00759245 -1.28778e-09
-3.04437e-10 0.00759245 -1.49317e-09
-9.8042e-10 0.00885643 -1.43501e-09
-6.85991e-10 0.00885643 -1.36453e-09
-5.52806e-10 0.00885643 -1.2493e-09
-3.97827e-10 0.00885643 -1.39695e-09
-5.43816e-10 0.00885643 -1.40405e-09
-6.79952e-10 0.00885643 -1.38163e-09
-6.84746e-10 0.00885643 -1.41927e-09
-5.54844e-10 0.00885643 -1.36475e-09
-4.81777e-10 0.00885643 -1.40072e-09
-5.68597e-10 0.00885643 -1.34601e-09
-6.39015e-10 0.00885643 -1.32731e-09
-6.15859e-10 0.00885643 -1.42724e-09
-5.61366e-10 0.00885643 -1.37622e-09
-5.14512e-10 0.00885643 -1.32136e-09
-5.57526e-10 0.00885643 -1.39863e-09
-6.01356e-10 0.00885643 -1.40628e-09
-5.22639e-10 0.00885643 -1.44584e-09
-5.27557e-10 0.00885643 -1.46035e-09
-5.24482e-10 0.00885643 -1.38569e-09
-5.49223e-10 0.00885643 -1.40051e-09
-6.1641e-10 0.00885643 -1.35615e-09
-4.69226e-10 0.00885643 -1.4736e-09
-4.26659e-10 0.00885643 -1.40509e-09
-5.82399e-10 0.00885643 -1.32279e-09
-5.46661e-10 0.00885643 -1.39397e-09
-5.95941e-10 0.0101198 -1.35745e-09
-7.97361e-10 0.0101198 -1.28497e-09
-5.55179e-10 0.0101198 -1.2992e-09
-6.65897e-10 0.0101198 -1.1721e-09
-1.78916e-10 0.0101198 -1.25396e-09
-8.8626e-10 0.0101198 -1.26023e-09
-6.0438e-10 0.0101198 -1.20056e-09
-5.78962e-10 0.0101198 -1.29003e-09
-6.58694e-10 0.0101198 -1.23046e-09
-4.89968e-10 0.0101198 -1.24928e-09
-6.72236e-10 0.0101198 -1.38248e-09
-6.87272e-10 0.0101198 -1.29589e-09
-5.21739e-10 0.0101198 -1.32702e-09
-6.88938e-10 0.0101198 -1.28508e-09
-5.53434e-10 0.0101198 -1.27683e-09
-5.59214e-10 0.0101198 -1.29495e-09
-6.27475e-10 0.0101198 -1.25338e-09
-5.33486e-10 0.0101198 -1.32988e-09
-6.61385e-10 0.0101198 -1.30947e-09
-5.90235e-10 0.0101198 -1.27082e-09
-4.65465e-10 0.0101198 -1.30856e-09
-6.47915e-10 0.0101198 -1.38485e-09
-6.2021e-10 0.0101198 -1.4629e-09
-5.80362e-10 0.0101198 -1.31568e-09
-6.70362e-10 0.0101198 -1.23287e-09
-8.58105e-10 0.0113824 -1.26769e-09
-6.00599e-10 0.0113824 -1.37624e-09
-6.42025e-10 0.0113824 -1.21612e-09
-7.46642e-10 0.0113824 -1.11456e-09
-9.88974e-10 0.0113824 -1.12447e-09
-5.87698e-10 0.0113824 -1.32673e-09
-7.38739e-10 0.0113824 -1.27545e-09
-6.86238e-10 0.0113824 -1.29251e-09
-7.84061e-10 0.0113824 -1.25615e-09
-7.35712e-10 0.0113824 -1.21027e-09
-7.41279e-10 0.0113824 -1.26952e-09
-6.81317e-10 0.0113824 -1.26792e-09
-7.08911e-10 0.0113824 -1.30742e-09
-6.96094e-10 0.0113824 -1.22282e-09
-8.85798e-10 0.0113824 -1.0429e-09
-6.15286e-10 0.0113824 -1.29598e-09
-7.06245e-10 0.0113824 -1.27704e-09
-6.35257e-10 0.0113824 -1.20595e-09
-5.72581e-10 0.0113824 -1.13664e-09
-6.51827e-10 0.0113824 -1.13412e-09
-8.84803e-10 0.0113824 -1.53625e-09
-6.05739e-10 0.0113824 -1.27008e-09
-5.2821e-10 0.0113824 -1.29963e-09
-7.88647e-10 0.0113824 -1.10919e-09
-6.72033e-10 0.0113824 -1.0246e-09
-7.16184e-10 0.0126442 -1.20068e-09
-7.57106e-10 0.0126442 -1.08942e-09
-6.25518e-10 0.0126442 -1.32943e-09
-6.85075e-10 0.0126442 -1.13348e-09
-7.40396e-10 0.0126442 -9.90209e-10
-8.50133e-10 0.0126442 -1.29517e-09
-7.39938e-10 0.0126442 -1.18901e-09
-6.90284e-10 0.0126442 -1.23148e-09
-8.02679e-10 0.0126442 -1.14402e-09
-8.25731e-10 0.0126442 -1.07445e-09
-8.24478e-10 0.0126442 -1.2856e-09
-7.08634e-10 0.0126442 -1.18591e-09
-7.7239e-10 0.0126442 -1.10961e-09
-8.24142e-10 0.0126442 -1.03167e-09
-6.90167e-10 0.0126442 -1.10565e-09
-7.39677e-10 0.0126442 -1.26652e-09
-7.93072e-10 0.0126442 -1.2049e-09
-6.96864e-10 0.0126442 -1.16188e-09
-7.54621e-10 0.0126442 -1.13835e-09
-7.89034e-10 0.0126442 -9.88614e-10
-1.02441e-09 0.0126442 -1.18281e-09
-7.35332e-10 0.0126442 -1.2018e-09
-6.7529e-10 0.0126442 -1.08228e-09
-8.56422e-10 0.0126442 -9.18652e-10
-7.01115e-10 0.0126442 -1.10865e-09
-5.60217e-10 0.0139051 -1.24412e-09
-8.06012e-10 0.0139051 -1.04472e-09
-7.53596e-10 0.0139051 -1.04131e-09
-7.47961e-10 0.0139051 -7.84593e-10
-1.11793e-09 0.0139051 -6.65375e-10
-7.86619e-10 0.0139051 -1.04633e-09
-7.59262e-10 0.0139051 -1.07908e-09
-7.96722e-10 0.0139051 -1.03799e-09
-8.33639e-10 0.0139051 -9.20703e-10
-8.43755e-10 0.0139051 -8.72292e-10
-8.4958e-10 0.0139051 -1.09988e-09
-7.85967e-10 0.0139051 -1.01605e-09
-8.04612e-10 0.0139051 -1.01753e-09
-9.57566e-10 0.0139051 -9.79874e-10
-7.50494e-10 0.0139051 -8.33468e-10
-9.3732e-10 0.0139051 -9.73767e-10
-7.96819e-10 0.0139051 -1.10621e-09
-8.80263e-10 0.0139051 -9.24271e-10
-7.9878e-10 0.0139051 -7.99438e-10
-7.51178e-10 0.0139051 -8.30763e-10
-1.01506e-09 0.0139051 -1.07735e-09
-9.63666e-10 0.0139051 -9.12423e-10
-7.81475e-10 0.0139051 -9.67579e-10
-6.63265e-10 0.0139051 -9.84898e-10
-1.07259e-09 0.0139051 -7.71442e-10
-5.93211e-10 0.0151651 -7.13282e-10
-8.02024e-10 0.0151651 -8.03935e-10
-7.73554e-10 0.0151651 -6.40263e-10
-9.82789e-10 0.015165 -8.52327e-10
-1.25524e-09 0.015165 -7.19782e-10
-8.1134e-10 0.0151651 -6.89386e-10
-8.01268e-10 0.0151651 -7.47391e-10
-8.76011e-10 0.0151651 -6.99986e-10
-9.87628e-10 0.0151651 -7.26279e-10
-1.06945e-09 0.015165 -6.46967e-10
-7.49463e-10 0.0151651 -6.92701e-10
-9.1544e-10 0.0151651 -7.62416e-10
-8.42162e-10 0.0151651 -7.96774e-10
-1.0761e-09 0.015165 -5.88777e-10
-1.09734e-09 0.0151651 -6.29162e-10
-9.06647e-10 0.0151651 -7.11977e-10
-9.69012e-10 0.0151651 -6.71801e-10
-7.42369e-10 0.015165 -5.65533e-10
-9.63827e-10 0.0151651 -7.61748e-10
-9.61148e-10 0.015165 -6.88066e-10
-1.11366e-09 0.015165 -6.66195e-10
-9.16804e-10 0.015165 -6.71155e-10
-8.46748e-10 0.015165 -5.76381e-10
-9.15843e-10 0.015165 -6.29632e-10
-8.21674e-10 0.015165 -6.78664e-10
-1.19805e-09 0.016424 -2.14048e-10
-8.15122e-10 0.016424 -3.83865e-10
-1.11149e-09 0.016424 -4.19952e-10
-1.1801e-09 0.016424 -5.09173e-10
-1.12054e-09 0.016424 -5.04384e-10
-8.41044e-10 0.016424 -3.3509e-10
-1.0503e-09 0.016424 -3.9878e-10
-9.82512e-10 0.016424 -4.77421e-10
-9.88762e-10 0.016424 -3.33712e-10
-1.23569e-09 0.016424 -3.44518e-10
-1.0271e-09 0.016424 -4.0354e-10
-1.01715e-09 0.016424 -3.47825e-10
-8.47568e-10 0.016424 -4.09406e-10
-9.66081e-10 0.016424 -4.33639e-10
-1.42537e-09 0.016424 -3.0353e-10
-1.3273e-09 0.016424 -2.50948e-10
-9.07746e-10 0.016424 -1.97621e-10
-8.75415e-10 0.016424 -1.92407e-10
-1.05185e-09 0.016424 -2.80454e-10
-9.39841e-10 0.016424 -3.71916e-10
-1.40221e-09 0.016424 -1.45804e-10
-1.07083e-09 0.016424 -2.02043e-11
-9.62161e-10 0.016424 -7.4194e-11
-9.40979e-10 0.016424 -1.22645e-10
-9.04524e-10 0.016424 -3.31223e-10
-5.40063e-10 0.0176819 -5.49791e-11
-1.07432e-09 0.0176819 4.33475e-11
-1.17362e-09 0.0176819 -3.91476e-11
-1.18265e-09 0.0176819 -1.89717e-10
-1.55357e-09 0.0176819 2.64477e-11
-8.55787e-10 0.0176819 9.48673e-11
-1.02647e-09 0.0176819 3.20108e-11
-1.06492e-09 0.0176819 2.42288e-11
-1.23284e-09 0.0176819 -1.46011e-10
-1.40935e-09 0.0176819 -3.47753e-11
-1.2859e-09 0.0176819 7.93734e-11
-9.62252e-10 0.0176819 1.84941e-10
-9.81206e-10 0.0176819 1.44417e-10
-1.14588e-09 0.0176819 -5.8084e-11
-1.13705e-09 0.0176819 -2.97024e-12
-1.24443e-09 0.0176819 4.10176e-10
-1.05362e-09 0.0176819 3.09512e-10
-8.77239e-10 0.0176819 3.29976e-10
-1.2248e-09 0.0176819 8.06426e-11
-1.14496e-09 0.0176819 2.00064e-10
-1.01668e-09 0.0176819 6.06042e-10
-9.251e-10 0.0176819 4.68851e-10
-1.05869e-09 0.0176819 2.84115e-10
-1.10217e-09 0.0176819 3.47687e-10
-1.33934e-09 0.0176819 6.05777e-10
-1.24687e-09 0.0189387 5.32939e-10
-1.11376e-09 0.0189387 2.60834e-10
-1.19705e-09 0.0189387 2.77925e-10
-1.32169e-09 0.0189387 1.87269e-10
-1.33149e-09 0.0189387 3.44154e-10
-1.09367e-09 0.0189387 5.0195e-10
-1.18695e-09 0.0189387 5.95776e-10
-1.1472e-09 0.0189387 3.74938e-10
-1.29882e-09 0.0189387 3.97694e-10
-1.55166e-09 0.0189387 2.67637e-10
-8.76604e-10 0.0189387 8.17868e-10
-1.12382e-09 0.0189387 5.80152e-10
-1.11696e-09 0.0189387 6.85384e-10
-1.30134e-09 0.0189387 4.63785e-10
-1.17195e-09 0.0189387 2.82578e-10
-9.7211e-10 0.0189387 7.90223e-10
-1.09396e-09 0.0189387 9.21631e-10
-1.14473e-09 0.0189387 6.19518e-10
-1.24052e-09 0.0189387 5.27782e-10
-1.2382e-09 0.0189387 6.45219e-10
-5.66423e-10 0.0189387 9.95902e-10
-1.35673e-09 0.0189387 7.1719e-10
-9.91812e-10 0.0189387 7.83765e-10
-1.52303e-09 0.0189387 7.99646e-10
-1.1028e-09 0.0189387 8.65953e-10
-1.70327e-09 0.0201943 1.07633e-09
-1.54414e-09 0.0201943 1.30546e-09
-1.46963e-09 0.0201943 9.94469e-10
-1.54979e-09 0.0201943 4.72063e-10
-1.31693e-09 0.0201943 8.61889e-10
-1.56392e-09 0.0201943 1.06781e-09
-1.19829e-09 0.0201943 1.06344e-09
-1.14155e-09 0.0201943 1.08256e-09
-1.32877e-09 0.0201943 9.29312e-10
-1.57278e-09 0.0201943 9.1752e-10
-1.04478e-09 0.0201943 1.20481e-09
-1.23279e-09 0.0201943 1.18159e-09
-1.29042e-09 0.0201943 1.14826e-09
-1.40601e-09 0.0201943 9.69371e-10
-1.45257e-09 0.0201943 9.83069e-10
-5.16685e-10 0.0201943 1.164e-09
-1.39178e-09 0.0201943 1.20327e-09
-1.26808e-09 0.0201943 1.22059e-09
-1.49732e-09 0.0201943 1.13108e-09
-1.01729e-09 0.0201943 9.56029e-10
-1.15017e-09 0.0201943 9.97924e-10
-8.34764e-10 0.0201943 1.24222e-09
-1.47624e-09 0.0201943 9.19588e-10
-1.18141e-09 0.0201943 9.91637e-10
-1.73906e-09 0.0201943 1.10878e-09
-1.14418e-09 0.0214488 2.04919e-09
-1.40576e-09 0.0214488 1.88018e-09
-1.43844e-09 0.0214488 2.11072e-09
-1.79161e-09 0.0214488 1.52307e-09
-2.12527e-09 0.0214488 1.36745e-09
-9.9148e-10 0.0214488 1.80992e-09
-1.53832e-09 0.0214488 1.83212e-09
-1.46489e-09 0.0214488 1.73708e-09
-1.75124e-09 0.0214488 1.49069e-09
-1.71481e-09 0.0214488 1.60914e-09
-1.14491e-09 0.0214488 1.56602e-09
-1.36829e-09 0.0214488 1.55938e-09
-1.37203e-09 0.0214488 1.66261e-09
-1.48916e-09 0.0214488 1.73518e-09
-1.87658e-09 0.0214488 1.7327e-09
-1.04446e-09 0.0214488 1.53294e-09
-1.25777e-09 0.0214488 1.45232e-09
-1.4517e-09 0.0214488 1.61054e-09
-1.51939e-09 0.0214488 1.44208e-09
-1.62296e-09 0.0214488 1.86805e-09
-3.85138e-10 0.0214488 1.71033e-09
-1.76712e-09 0.0214488 1.57659e-09
-1.27795e-09 0.0214488 1.64705e-09
-1.50807e-09 0.0214488 1.83753e-09
-1.77002e-09 0.0214488 1.49084e-09
-1.37083e-09 0.022702 2.61229e-09
-1.62415e-09 0.022702 2.46188e-09
-1.66822e-09 0.022702 2.27415e-09
-1.94021e-09 0.022702 2.08971e-09
-1.69807e-09 0.022702 2.13453e-09
-1.2491e-09 0.022702 2.40106e-09
-1.7163e-09 0.022702 2.24101e-09
-1.63331e-09 0.022702 2.2987e-09
-1.74627e-09 0.022702 2.14749e-09
-1.80319e-09 0.022702 1.94606e-09
-1.59933e-09 0.022702 2.18142e-09
-1.45685e-09 0.022702 2.16784e-09
-1.59081e-09 0.022702 2.00701e-09
-1.55325e-09 0.022702 2.17461e-09
-1.56557e-09 0.022702 2.30416e-09
-1.12349e-09 0.022702 2.035e-09
-1.6315e-09 0.022702 2.14099e-09
-1.46822e-09 0.022702 2.14478e-09
-1.5636e-09 0.022702 2.13577e-09
-1.83738e-09 0.022702 2.31515e-09
-1.60341e-09 0.022702 2.22922e-09
-1.43092e-09 0.022702 2.11631e-09
-1.59524e-09 0.022702 2.41194e-09
-1.52737e-09 0.022702 2.22191e-09
-1.64513e-09 0.022702 2.24333e-09
-1.69142e-09 0.023954 2.65363e-09
-1.60135e-09 0.023954 2.79785e-09
-2.01764e-09 0.023954 2.53019e-09
-1.94869e-09 0.023954 2.40769e-09
-1.81119e-09 0.023954 2.60311e-09
-1.43047e-09 0.023954 2.85003e-09
-1.74336e-09 0.023954 2.72088e-09
-1.60047e-09 0.023954 2.65921e-09
-1.7696e-09 0.023954 2.7409e-09
-1.49867e-09 0.023954 2.45557e-09
-1.53767e-09 0.023954 2.94734e-09
-1.59485e-09 0.023954 2.89747e-09
-1.58354e-09 0.023954 2.62005e-09
-1.57796e-09 0.023954 2.56665e-09
-1.44756e-09 0.023954 2.4686e-09
-1.59946e-09 0.023954 2.82169e-09
-1.45709e-09 0.023954 2.82988e-09
-1.53677e-09 0.023954 2.99798e-09
-1.65163e-09 0.023954 2.77557e-09
-1.45502e-09 0.023954 2.80467e-09
-1.91172e-09 0.023954 2.97272e-09
-1.39061e-09 0.023954 2.87099e-09
-1.49626e-09 0.023954 2.73812e-09
-1.82889e-09 0.023954 2.8442e-09
-1.40494e-09 0.023954 2.83709e-09
-9.92546e-10 0.0252047 3.72641e-09
-1.91551e-09 0.0252047 3.50555e-09
-1.52091e-09 0.0252047 3.46573e-09
-2.04311e-09 0.0252047 3.44755e-09
-1.8908e-09 0.0252047 3.18531e-09
-1.67101e-09 0.0252047 3.43627e-09
-1.53626e-09 0.0252047 3.47291e-09
-1.82284e-09 0.0252047 3.31625e-09
-1.87177e-09 0.0252047 3.19546e-09
-1.70412e-09 0.0252047 3.28942e-09
-1.41637e-09 0.0252047 3.51469e-09
-1.76881e-09 0.0252047 3.59165e-09
-1.71859e-09 0.0252047 3.50725e-09
-1.74403e-09 0.0252047 3.23693e-09
-1.58447e-09 0.0252047 3.14438e-09
-1.78269e-09 0.0252047 3.7884e-09
-1.63941e-09 0.0252047 3.53501e-09
-1.71965e-09 0.0252047 3.51612e-09
-1.72404e-09 0.0252047 3.56188e-09
-1.94807e-09 0.0252047 3.27049e-09
-1.96202e-09 0.0252047 3.70477e-09
-1.63647e-09 0.0252047 3.53181e-09
-1.62351e-09 0.0252047 3.44624e-09
-1.91059e-09 0.0252047 3.40382e-09
-1.49428e-09 0.0252047 3.42691e-09
-1.47946e-09 0.0264542 4.07982e-09
-1.47991e-09 0.0264542 4.11222e-09
-1.60924e-09 0.0264542 4.16627e-09
-2.30755e-09 0.0264542 3.75428e-09
-1.81283e-09 0.0264542 4.39142e-09
-1.30559e-09 0.0264542 4.16323e-09
-1.74264e-09 0.0264542 4.05618e-09
-1.78311e-09 0.0264542 4.14439e-09
-1.91719e-09 0.0264542 4.07038e-09
-1.73643e-09 0.0264542 4.20722e-09
-1.7242e-09 0.0264542 4.11666e-09
-1.64832e-09 0.0264542 4.30901e-09
-1.8245e-09 0.0264542 4.05768e-09
-1.72158e-09 0.0264542 4.20193e-09
-1.40832e-09 0.0264542 4.01402e-09
-1.72609e-09 0.0264542 4.34334e-09
-1.82479e-09 0.0264542 4.44994e-09
-1.74444e-09 0.0264542 4.40529e-09
-1.87483e-09 0.0264542 3.97287e-09
-1.50748e-09 0.0264542 4.10952e-09
-2.0922e-09 0.0264542 4.67147e-09
-1.51413e-09 0.0264542 4.48588e-09
-1.251e-09 0.0264542 4.11285e-09
-1.61297e-09 0.0264542 4.23166e-09
-2.05868e-09 0.0264542 4.22361e-09
-1.19357e-09 0.0277024 4.56634e-09
-1.51162e-09 0.0277024 5.0449e-09
-2.13598e-09 0.0277024 4.02879e-09
-2.29545e-09 0.0277024 5.03458e-09
-1.83546e-09 0.0277024 4.80889e-09
-1.81325e-09 0.0277024 4.97805e-09
-1.6264e-09 0.0277024 4.74292e-09
-1.80627e-09 0.0277024 4.71763e-09
-1.90358e-09 0.0277024 4.93111e-09
-1.85645e-09 0.0277024 4.96137e-09
-2.01209e-09 0.0277024 4.91128e-09
-1.8053e-09 0.0277024 4.98931e-09
-1.836e-09 0.0277024 5.29045e-09
-1.88733e-09 0.0277024 5.07589e-09
-1.32109e-09 0.0277024 5.24847e-09
-1.68745e-09 0.0277024 5.2617e-09
-1.67658e-09 0.0277024 5.07153e-09
-1.81432e-09 0.0277024 5.15015e-09
-1.76154e-09 0.0277024 5.19957e-09
-1.50732e-09 0.0277024 5.14179e-09
-8.73863e-10 0.0277024 5.3311e-09
-1.96502e-09 0.0277024 5.29228e-09
-1.69126e-09 0.0277024 5.40459e-09
-1.69406e-09 0.0277024 5.43545e-09
-1.86972e-09 0.0277024 5.17158e-09
-1.55504e-09 0.0289493 5.92079e-09
-2.24964e-09 0.0289493 5.18075e-09
-2.09079e-09 0.0289493 5.56489e-09
-1.94647e-09 0.0289493 5.47558e-09