<?xml version="1.0"?>
<VTKFile type="UnstructuredGrid" version="0.1" byte_order="LittleEndian">
<UnstructuredGrid>
<Piece NumberOfPoints="1025" NumberOfCells="640">
<Points>
<DataArray type="Float32" NumberOfComponents="3" format="ascii">
0 0 0
0.025 0 0
0.05 0 0
0.075 0 0
0.1 0 0
0 0.025 0
0.025 0.025 0
0.05 0.025 0
0.075 0.025 0
0.1 0.025 0
0 0.05 0
0.025 0.05 0
0.05 0.05 0
0.075 0.05 0
0.1 0.05 0
0 0.075 0
0.025 0.075 0
0.05 0.075 0
0.075 0.075 0
0.1 0.075 0
0 0.1 0
0.025 0.1 0
0.05 0.1 0
0.075 0.1 0
0.1 0.1 0
0 0 0.025
0.025 0 0.025
0.05 0 0.025
0.075 0 0.025
0.1 0 0.025
0 0.025 0.025
0.025 0.025 0.025
0.05 0.025 0.025
0.075 0.025 0.025
0.1 0.025 0.025
0 0.05 0.025
0.025 0.05 0.025
0.05 0.05 0.025
0.075 0.05 0.025
0.1 0.05 0.025
0 0.075 0.025
0.025 0.075 0.025
0.05 0.075 0.025
0.075 0.075 0.025
0.1 0.075 0.025
0 0.1 0.025
0.025 0.1 0.025
0.05 0.1 0.025
0.075 0.1 0.025
0.1 0.1 0.025
0 0 0.05
0.025 0 0.05
0.05 0 0.05
0.075 0 0.05
0.1 0 0.05
0 0.025 0.05
0.025 0.025 0.05
0.05 0.025 0.05
0.075 0.025 0.05
0.1 0.025 0.05
0 0.05 0.05
0.025 0.05 0.05
0.05 0.05 0.05
0.075 0.05 0.05
0.1 0.05 0.05
0 0.075 0.05
0.025 0.075 0.05
0.05 0.075 0.05
0.075 0.075 0.05
0.1 0.075 0.05
0 0.1 0.05
0.025 0.1 0.05
0.05 0.1 0.05
0.075 0.1 0.05
0.1 0.1 0.05
0 0 0.075
0.025 0 0.075
0.05 0 0.075
0.075 0 0.075
0.1 0 0.075
0 0.025 0.075
0.025 0.025 0.075
0.05 0.025 0.075
0.075 0.025 0.075
0.1 0.025 0.075
0 0.05 0.075
0.025 0.05 0.075
0.05 0.05 0.075
0.075 0.05 0.075
0.1 0.05 0.075
0 0.075 0.075
0.025 0.075 0.075
0.05 0.075 0.075
0.075 0.075 0.075
0.1 0.075 0.075
0 0.1 0.075
0.025 0.1 0.075
0.05 0.1 0.075
0.075 0.1 0.075
0.1 0.1 0.075
0 0 0.1
0.025 0 0.1
0.05 0 0.1
0.075 0 0.1
0.1 0 0.1
0 0.025 0.1
0.025 0.025 0.1
0.05 0.025 0.1
0.075 0.025 0.1
0.1 0.025 0.1
0 0.05 0.1
0.025 0.05 0.1
0.05 0.05 0.1
0.075 0.05 0.1
0.1 0.05 0.1
0 0.075 0.1
0.025 0.075 0.1
0.05 0.075 0.1
0.075 0.075 0.1
0.1 0.075 0.1
0 0.1 0.1
0.025 0.1 0.1
0.05 0.1 0.1
0.075 0.1 0.1
0.1 0.1 0.1
0 0 0.125
0.025 0 0.125
0.05 0 0.125
0.075 0 0.125
0.1 0 0.125
0 0.025 0.125
0.025 0.025 0.125
0.05 0.025 0.125
0.075 0.025 0.125
0.1 0.025 0.125
0 0.05 0.125
0.025 0.05 0.125
0.05 0.05 0.125
0.075 0.05 0.125
0.1 0.05 0.125
0 0.075 0.125
0.025 0.075 0.125
0.05 0.075 0.125
0.075 0.075 0.125
0.1 0.075 0.125
0 0.1 0.125
0.025 0.1 0.125
0.05 0.1 0.125
0.075 0.1 0.125
0.1 0.1 0.125
0 0 0.15
0.025 0 0.15
0.05 0 0.15
0.075 0 0.15
0.1 0 0.15
0 0.025 0.15
0.025 0.025 0.15
0.05 0.025 0.15
0.075 0.025 0.15
0.1 0.025 0.15
0 0.05 0.15
0.025 0.05 0.15
0.05 0.05 0.15
0.075 0.05 0.15
0.1 0.05 0.15
0 0.075 0.15
0.025 0.075 0.15
0.05 0.075 0.15
0.075 0.075 0.15
0.1 0.075 0.15
0 0.1 0.15
0.025 0.1 0.15
0.05 0.1 0.15
0.075 0.1 0.15
0.1 0.1 0.15
0 0 0.175
0.025 0 0.175
0.05 0 0.175
0.075 0 0.175
0.1 0 0.175
0 0.025 0.175
0.025 0.025 0.175
0.05 0.025 0.175
0.075 0.025 0.175
0.1 0.025 0.175
0 0.05 0.175
0.025 0.05 0.175
0.05 0.05 0.175
0.075 0.05 0.175
0.1 0.05 0.175
0 0.075 0.175
0.025 0.075 0.175
0.05 0.075 0.175
0.075 0.075 0.175
0.1 0.075 0.175
0 0.1 0.175
0.025 0.1 0.175
0.05 0.1 0.175
0.075 0.1 0.175
0.1 0.1 0.175
0 0 0.2
0.025 0 0.2
0.05 0 0.2
0.075 0 0.2
0.1 0 0.2
0 0.025 0.2
0.025 0.025 0.2
0.05 0.025 0.2
0.075 0.025 0.2
0.1 0.025 0.2
0 0.05 0.2
0.025 0.05 0.2
0.05 0.05 0.2
0.075 0.05 0.2
0.1 0.05 0.2
0 0.075 0.2
0.025 0.075 0.2
0.05 0.075 0.2
0.075 0.075 0.2
0.1 0.075 0.2
0 0.1 0.2
0.025 0.1 0.2
0.05 0.1 0.2
0.075 0.1 0.2
0.1 0.1 0.2
0 0 0.225
0.025 0 0.225
0.05 0 0.225
0.075 0 0.225
0.1 0 0.225
0 0.025 0.225
0.025 0.025 0.225
0.05 0.025 0.225
0.075 0.025 0.225
0.1 0.025 0.225
0 0.05 0.225
0.025 0.05 0.225
0.05 0.05 0.225
0.075 0.05 0.225
0.1 0.05 0.225
0 0.075 0.225
0.025 0.075 0.225
0.05 0.075 0.225
0.075 0.075 0.225
0.1 0.075 0.225
0 0.1 0.225
0.025 0.1 0.225
0.05 0.1 0.225
0.075 0.1 0.225
0.1 0.1 0.225
0 0 0.25
0.025 0 0.25
0.05 0 0.25
0.075 0 0.25
0.1 0 0.25
0 0.025 0.25
0.025 0.025 0.25
0.05 0.025 0.25
0.075 0.025 0.25
0.1 0.025 0.25
0 0.05 0.25
0.025 0.05 0.25
0.05 0.05 0.25
0.075 0.05 0.25
0.1 0.05 0.25
0 0.075 0.25
0.025 0.075 0.25
0.05 0.075 0.25
0.075 0.075 0.25
0.1 0.075 0.25
0 0.1 0.25
0.025 0.1 0.25
0.05 0.1 0.25
0.075 0.1 0.25
0.1 0.1 0.25
0 0 0.275
0.025 0 0.275
0.05 0 0.275
0.075 0 0.275
0.1 0 0.275
0 0.025 0.275
0.025 0.025 0.275
0.05 0.025 0.275
0.075 0.025 0.275
0.1 0.025 0.275
0 0.05 0.275
0.025 0.05 0.275
0.05 0.05 0.275
0.075 0.05 0.275
0.1 0.05 0.275
0 0.075 0.275
0.025 0.075 0.275
0.05 0.075 0.275
0.075 0.075 0.275
0.1 0.075 0.275
0 0.1 0.275
0.025 0.1 0.275
0.05 0.1 0.275
0.075 0.1 0.275
0.1 0.1 0.275
0 0 0.3
0.025 0 0.3
0.05 0 0.3
0.075 0 0.3
0.1 0 0.3
0 0.025 0.3
0.025 0.025 0.3
0.05 0.025 0.3
0.075 0.025 0.3
0.1 0.025 0.3
0 0.05 0.3
0.025 0.05 0.3
0.05 0.05 0.3
0.075 0.05 0.3
0.1 0.05 0.3
0 0.075 0.3
0.025 0.075 0.3
0.05 0.075 0.3
0.075 0.075 0.3
0.1 0.075 0.3
0 0.1 0.3
0.025 0.1 0.3
0.05 0.1 0.3
0.075 0.1 0.3
0.1 0.1 0.3
0 0 0.325
0.025 0 0.325
0.05 0 0.325
0.075 0 0.325
0.1 0 0.325
0 0.025 0.325
0.025 0.025 0.325
0.05 0.025 0.325
0.075 0.025 0.325
0.1 0.025 0.325
0 0.05 0.325
0.025 0.05 0.325
0.05 0.05 0.325
0.075 0.05 0.325
0.1 0.05 0.325
0 0.075 0.325
0.025 0.075 0.325
0.05 0.075 0.325
0.075 0.075 0.325
0.1 0.075 0.325
0 0.1 0.325
0.025 0.1 0.325
0.05 0.1 0.325
0.075 0.1 0.325
0.1 0.1 0.325
0 0 0.35
0.025 0 0.35
0.05 0 0.35
0.075 0 0.35
0.1 0 0.35
0 0.025 0.35
0.025 0.025 0.35
0.05 0.025 0.35
0.075 0.025 0.35
0.1 0.025 0.35
0 0.05 0.35
0.025 0.05 0.35
0.05 0.05 0.35
0.075 0.05 0.35
0.1 0.05 0.35
0 0.075 0.35
0.025 0.075 0.35
0.05 0.075 0.35
0.075 0.075 0.35
0.1 0.075 0.35
0 0.1 0.35
0.025 0.1 0.35
0.05 0.1 0.35
0.075 0.1 0.35
0.1 0.1 0.35
0 0 0.375
0.025 0 0.375
0.05 0 0.375
0.075 0 0.375
0.1 0 0.375
0 0.025 0.375
0.025 0.025 0.375
0.05 0.025 0.375
0.075 0.025 0.375
0.1 0.025 0.375
0 0.05 0.375
0.025 0.05 0.375
0.05 0.05 0.375
0.075 0.05 0.375
0.1 0.05 0.375
0 0.075 0.375
0.025 0.075 0.375
0.05 0.075 0.375
0.075 0.075 0.375
0.1 0.075 0.375
0 0.1 0.375
0.025 0.1 0.375
0.05 0.1 0.375
0.075 0.1 0.375
0.1 0.1 0.375
0 0 0.4
0.025 0 0.4
0.05 0 0.4
0.075 0 0.4
0.1 0 0.4
0 0.025 0.4
0.025 0.025 0.4
0.05 0.025 0.4
0.075 0.025 0.4
0.1 0.025 0.4
0 0.05 0.4
0.025 0.05 0.4
0.05 0.05 0.4
0.075 0.05 0.4
0.1 0.05 0.4
0 0.075 0.4
0.025 0.075 0.4
0.05 0.075 0.4
0.075 0.075 0.4
0.1 0.075 0.4
0 0.1 0.4
0.025 0.1 0.4
0.05 0.1 0.4
0.075 0.1 0.4
0.1 0.1 0.4
0 0 0.425
0.025 0 0.425
0.05 0 0.425
0.075 0 0.425
0.1 0 0.425
0 0.025 0.425
0.025 0.025 0.425
0.05 0.025 0.425
0.075 0.025 0.425
0.1 0.025 0.425
0 0.05 0.425
0.025 0.05 0.425
0.05 0.05 0.425
0.075 0.05 0.425
0.1 0.05 0.425
0 0.075 0.425
0.025 0.075 0.425
0.05 0.075 0.425
0.075 0.075 0.425
0.1 0.075 0.425
0 0.1 0.425
0.025 0.1 0.425
0.05 0.1 0.425
0.075 0.1 0.425
0.1 0.1 0.425
0 0 0.45
0.025 0 0.45
0.05 0 0.45
0.075 0 0.45
0.1 0 0.45
0 0.025 0.45
0.025 0.025 0.45
0.05 0.025 0.45
0.075 0.025 0.45
0.1 0.025 0.45
0 0.05 0.45
0.025 0.05 0.45
0.05 0.05 0.45
0.075 0.05 0.45
0.1 0.05 0.45
0 0.075 0.45
0.025 0.075 0.45
0.05 0.075 0.45
0.075 0.075 0.45
0.1 0.075 0.45
0 0.1 0.45
0.025 0.1 0.45
0.05 0.1 0.45
0.075 0.1 0.45
0.1 0.1 0.45
0 0 0.475
0.025 0 0.475
0.05 0 0.475
0.075 0 0.475
0.1 0 0.475
0 0.025 0.475
0.025 0.025 0.475
0.05 0.025 0.475
0.075 0.025 0.475
0.1 0.025 0.475
0 0.05 0.475
0.025 0.05 0.475
0.05 0.05 0.475
0.075 0.05 0.475
0.1 0.05 0.475
0 0.075 0.475
0.025 0.075 0.475
0.05 0.075 0.475
0.075 0.075 0.475
0.1 0.075 0.475
0 0.1 0.475
0.025 0.1 0.475
0.05 0.1 0.475
0.075 0.1 0.475
0.1 0.1 0.475
0 0 0.5
0.025 0 0.5
0.05 0 0.5
0.075 0 0.5
0.1 0 0.5
0 0.025 0.5
0.025 0.025 0.5
0.05 0.025 0.5
0.075 0.025 0.5
0.1 0.025 0.5
0 0.05 0.5
0.025 0.05 0.5
0.05 0.05 0.5
0.075 0.05 0.5
0.1 0.05 0.5
0 0.075 0.5
0.025 0.075 0.5
0.05 0.075 0.5
0.075 0.075 0.5
0.1 0.075 0.5
0 0.1 0.5
0.025 0.1 0.5
0.05 0.1 0.5
0.075 0.1 0.5
0.1 0.1 0.5
0 0 0.525
0.025 0 0.525
0.05 0 0.525
0.075 0 0.525
0.1 0 0.525
0 0.025 0.525
0.025 0.025 0.525
0.05 0.025 0.525
0.075 0.025 0.525
0.1 0.025 0.525
0 0.05 0.525
0.025 0.05 0.525
0.05 0.05 0.525
0.075 0.05 0.525
0.1 0.05 0.525
0 0.075 0.525
0.025 0.075 0.525
0.05 0.075 0.525
0.075 0.075 0.525
0.1 0.075 0.525
0 0.1 0.525
0.025 0.1 0.525
0.05 0.1 0.525
0.075 0.1 0.525
0.1 0.1 0.525
0 0 0.55
0.025 0 0.55
0.05 0 0.55
0.075 0 0.55
0.1 0 0.55
0 0.025 0.55
0.025 0.025 0.55
0.05 0.025 0.55
0.075 0.025 0.55
0.1 0.025 0.55
0 0.05 0.55
0.025 0.05 0.55
0.05 0.05 0.55
0.075 0.05 0.55
0.1 0.05 0.55
0 0.075 0.55
0.025 0.075 0.55
0.05 0.075 0.55
0.075 0.075 0.55
0.1 0.075 0.55
0 0.1 0.55
0.025 0.1 0.55
0.05 0.1 0.55
0.075 0.1 0.55
0.1 0.1 0.55
0 0 0.575
0.025 0 0.575
0.05 0 0.575
0.075 0 0.575
0.1 0 0.575
0 0.025 0.575
0.025 0.025 0.575
0.05 0.025 0.575
0.075 0.025 0.575
0.1 0.025 0.575
0 0.05 0.575
0.025 0.05 0.575
0.05 0.05 0.575
0.075 0.05 0.575
0.1 0.05 0.575
0 0.075 0.575
0.025 0.075 0.575
0.05 0.075 0.575
0.075 0.075 0.575
0.1 0.075 0.575
0 0.1 0.575
0.025 0.1 0.575
0.05 0.1 0.575
0.075 0.1 0.575
0.1 0.1 0.575
0 0 0.6
0.025 0 0.6
0.05 0 0.6
0.075 0 0.6
0.1 0 0.6
0 0.025 0.6
0.025 0.025 0.6
0.05 0.025 0.6
0.075 0.025 0.6
0.1 0.025 0.6
0 0.05 0.6
0.025 0.05 0.6
0.05 0.05 0.6
0.075 0.05 0.6
0.1 0.05 0.6
0 0.075 0.6
0.025 0.075 0.6
0.05 0.075 0.6
0.075 0.075 0.6
0.1 0.075 0.6
0 0.1 0.6
0.025 0.1 0.6
0.05 0.1 0.6
0.075 0.1 0.6
0.1 0.1 0.6
0 0 0.625
0.025 0 0.625
0.05 0 0.625
0.075 0 0.625
0.1 0 0.625
0 0.025 0.625
0.025 0.025 0.625
0.05 0.025 0.625
0.075 0.025 0.625
0.1 0.025 0.625
0 0.05 0.625
0.025 0.05 0.625
0.05 0.05 0.625
0.075 0.05 0.625
0.1 0.05 0.625
0 0.075 0.625
0.025 0.075 0.625
0.05 0.075 0.625
0.075 0.075 0.625
0.1 0.075 0.625
0 0.1 0.625
0.025 0.1 0.625
0.05 0.1 0.625
0.075 0.1 0.625
0.1 0.1 0.625
0 0 0.65
0.025 0 0.65
0.05 0 0.65
0.075 0 0.65
0.1 0 0.65
0 0.025 0.65
0.025 0.025 0.65
0.05 0.025 0.65
0.075 0.025 0.65
0.1 0.025 0.65
0 0.05 0.65
0.025 0.05 0.65
0.05 0.05 0.65
0.075 0.05 0.65
0.1 0.05 0.65
0 0.075 0.65
0.025 0.075 0.65
0.05 0.075 0.65
0.075 0.075 0.65
0.1 0.075 0.65
0 0.1 0.65
0.025 0.1 0.65
0.05 0.1 0.65
0.075 0.1 0.65
0.1 0.1 0.65
0 0 0.675
0.025 0 0.675
0.05 0 0.675
0.075 0 0.675
0.1 0 0.675
[...]
<PointData Vectors="Displacement">
<DataArray type="Float32" Name="Displacement" NumberOfComponents="3" format="ascii">
0 0 0
0 0 0
0 0 0
0 0 0
0 0 0
0 0 0
0 0 0
0 0 0
0 0 0
0 0 0
0 0 0
0 0 0
0 0 0
0 0 0
0 0 0
0 0 0
0 0 0
0 0 0
0 0 0
0 0 0
0 0 0
0 0 0
0 0 0
0 0 0
0 0 0
-4.05312e-10 0.0028097 -1.80699e-09
-1.45286e-10 0.0028097 -2.03774e-09
9.76027e-11 0.0028097 -1.98223e-09
3.26338e-10 0.0028097 -2.04425e-09
8.17822e-10 0.0028097 -2.0598e-09
-5.09017e-10 0.0028097 -2.00197e-09
-1.41283e-10 0.0028097 -2.01315e-09
8.25375e-11 0.0028097 -1.99611e-09
3.52283e-10 0.0028097 -1.97299e-09
8.42752e-10 0.0028097 -2.07459e-09
-4.86757e-10 0.0028097 -1.99602e-09
-1.75457e-10 0.0028097 -2.04193e-09
8.32134e-11 0.0028097 -1.93939e-09
4.22523e-10 0.0028097 -1.96842e-09
7.11532e-10 0.0028097 -1.95498e-09
-3.45334e-10 0.0028097 -1.9562e-09
-6.55656e-11 0.0028097 -1.94311e-09
1.70417e-10 0.0028097 -1.87582e-09
3.71769e-10 0.0028097 -1.91531e-09
5.99958e-10 0.0028097 -1.76926e-09
-2.30576e-10 0.00280971 -2.12298e-09
-5.68225e-11 0.00280971 -1.90116e-09
-3.70726e-12 0.00280971 -1.87766e-09
3.53809e-10 0.00280971 -1.79099e-09
6.45489e-10 0.0028097 -2.00271e-09
-6.38959e-10 0.00556619 -3.92534e-09
-1.02822e-10 0.00556619 -4.31706e-09
3.28381e-10 0.00556619 -4.0248e-09
6.66083e-10 0.00556619 -4.0153e-09
8.01308e-10 0.00556619 -4.03047e-09
-5.03663e-10 0.00556619 -4.10751e-09
-6.32858e-11 0.00556619 -3.96488e-09
1.22072e-10 0.00556619 -3.95587e-09
6.25478e-10 0.00556619 -3.93361e-09
1.26288e-09 0.00556619 -3.92776e-09
-6.61609e-10 0.00556619 -3.99183e-09
-5.77409e-11 0.00556619 -3.93907e-09
2.53621e-10 0.00556619 -3.97264e-09
5.26756e-10 0.00556619 -3.7999e-09
1.11163e-09 0.00556619 -3.74047e-09
-1.68388e-10 0.00556619 -3.90261e-09
-1.03383e-10 0.00556619 -3.96129e-09
2.95779e-10 0.00556619 -3.86165e-09
6.41493e-10 0.00556619 -3.82872e-09
7.75232e-10 0.00556619 -3.85095e-09
-3.60608e-10 0.00556619 -3.76123e-09
-1.3325e-10 0.00556619 -3.85418e-09
2.82584e-10 0.00556619 -3.69495e-09
5.35696e-10 0.00556619 -3.97047e-09
5.57764e-10 0.00556619 -3.79851e-09
-6.13651e-10 0.00821804 -5.76414e-09
2.38424e-10 0.00821804 -5.69539e-09
4.60068e-10 0.00821804 -5.3841e-09
7.36119e-10 0.00821804 -5.05709e-09
1.33515e-09 0.00821804 -5.48809e-09
-6.53063e-10 0.00821804 -5.69003e-09
1.26444e-10 0.00821804 -5.59242e-09
5.65296e-10 0.00821804 -5.45547e-09
7.83581e-10 0.00821804 -5.32848e-09
1.3914e-09 0.00821804 -5.38649e-09
-2.03868e-10 0.00821804 -5.61403e-09
1.37835e-10 0.00821804 -5.49669e-09
5.32713e-10 0.00821804 -5.45705e-09
9.71463e-10 0.00821804 -5.42676e-09
1.30572e-09 0.00821804 -5.58239e-09
-2.45512e-10 0.00821804 -5.48297e-09
3.0977e-11 0.00821804 -5.72091e-09
4.87404e-10 0.00821804 -5.35372e-09
1.00019e-09 0.00821804 -5.37045e-09
1.37855e-09 0.00821804 -5.37523e-09
-4.39767e-10 0.00821804 -5.7101e-09
-1.48383e-10 0.00821804 -5.38156e-09
5.66651e-10 0.00821804 -5.51011e-09
9.11319e-10 0.00821804 -5.11186e-09
1.17161e-09 0.00821804 -5.29513e-09
1.69642e-11 0.0107175 -6.70626e-09
6.55755e-10 0.0107175 -6.20429e-09
6.09274e-10 0.0107175 -6.41328e-09
8.32511e-10 0.0107175 -6.3724e-09
1.83583e-09 0.0107175 -6.37618e-09
-1.8843e-10 0.0107175 -6.58713e-09
3.87842e-10 0.0107175 -6.85247e-09
8.29627e-10 0.0107175 -6.43703e-09
1.04615e-09 0.0107175 -6.62963e-09
1.61305e-09 0.0107175 -6.25484e-09
1.86017e-10 0.0107175 -6.47698e-09
3.90965e-10 0.0107175 -6.83642e-09
7.45061e-10 0.0107175 -6.63253e-09
1.09224e-09 0.0107175 -6.58636e-09
1.75238e-09 0.0107175 -6.60187e-09
-1.39815e-10 0.0107175 -6.79269e-09
2.12617e-10 0.0107175 -6.73466e-09
8.42208e-10 0.0107175 -6.73693e-09
1.37646e-09 0.0107175 -6.4859e-09
1.47218e-09 0.0107175 -6.57749e-09
-2.37287e-10 0.0107175 -6.89478e-09
2.09877e-10 0.0107175 -6.63036e-09
8.43028e-10 0.0107175 -6.41802e-09
1.74875e-09 0.0107175 -6.63214e-09
1.57879e-09 0.0107175 -6.29049e-09
7.43778e-10 0.0130222 -6.63549e-09
1.13011e-09 0.0130222 -6.86268e-09
1.15263e-09 0.0130222 -7.24116e-09
1.13546e-09 0.0130222 -7.25254e-09
9.59726e-10 0.0130222 -6.67427e-09
6.62838e-10 0.0130222 -6.93014e-09
1.10186e-09 0.0130222 -6.88785e-09
1.2876e-09 0.0130222 -7.18134e-09
1.49375e-09 0.0130222 -7.01612e-09
1.79683e-09 0.0130222 -6.91096e-09
7.07256e-10 0.0130222 -7.47309e-09
9.00036e-10 0.0130222 -7.10749e-09
1.1541e-09 0.0130222 -7.30445e-09
1.36643e-09 0.0130222 -7.03068e-09
2.12873e-09 0.0130222 -6.6638e-09
5.93056e-10 0.0130222 -7.17947e-09
8.65766e-10 0.0130222 -7.07264e-09
1.41191e-09 0.0130222 -6.84259e-09
1.77789e-09 0.0130222 -7.07804e-09
1.68085e-09 0.0130222 -7.37932e-09
6.36723e-10 0.0130222 -7.44571e-09
8.79119e-11 0.0130222 -7.31908e-09
1.12281e-09 0.0130222 -7.15072e-09
1.91876e-09 0.0130222 -7.11944e-09
1.88351e-09 0.0130222 -6.86578e-09
2.04593e-09 0.0150973 -6.7874e-09
1.74157e-09 0.0150973 -6.88949e-09
2.02639e-09 0.0150973 -6.44294e-09
2.06585e-09 0.0150973 -6.59078e-09
1.10641e-09 0.0150973 -6.80577e-09
1.76599e-09 0.0150973 -6.55872e-09
1.63318e-09 0.0150973 -6.92831e-09
1.82405e-09 0.0150973 -7.07291e-09
2.18185e-09 0.0150973 -6.82882e-09
2.37013e-09 0.0150973 -6.4709e-09
1.16156e-09 0.0150973 -6.59118e-09
1.62572e-09 0.0150973 -6.90666e-09
1.8659e-09 0.0150973 -6.91116e-09
2.15768e-09 0.0150973 -7.07096e-09
2.61314e-09 0.0150973 -6.86032e-09
9.81988e-10 0.0150973 -6.70915e-09
1.44839e-09 0.0150973 -7.09669e-09
1.73748e-09 0.0150973 -6.76326e-09
2.10256e-09 0.0150973 -7.29163e-09
2.62855e-09 0.0150973 -7.09411e-09
4.77203e-10 0.0150973 -6.30304e-09
1.59197e-09 0.0150973 -6.89494e-09
2.32416e-09 0.0150973 -6.7709e-09
2.25008e-09 0.0150973 -6.99123e-09
2.5034e-09 0.0150973 -7.43159e-09
2.61367e-09 0.0169172 -5.37783e-09
2.75553e-09 0.0169172 -5.77247e-09
2.8343e-09 0.0169172 -5.38376e-09
3.13569e-09 0.0169172 -5.70214e-09
1.81199e-09 0.0169172 -5.72486e-09
2.51831e-09 0.0169172 -5.83636e-09
2.28342e-09 0.0169172 -6.01631e-09
2.67587e-09 0.0169172 -5.69894e-09
2.90228e-09 0.0169172 -5.88299e-09
2.50451e-09 0.0169172 -5.8008e-09
1.87757e-09 0.0169172 -5.80255e-09
2.28583e-09 0.0169172 -5.7817e-09
2.59169e-09 0.0169172 -5.89711e-09
2.79141e-09 0.0169172 -6.00853e-09
3.1218e-09 0.0169172 -6.11329e-09
2.2173e-09 0.0169172 -5.82381e-09
2.60239e-09 0.0169172 -6.19931e-09
2.55108e-09 0.0169172 -6.23391e-09
3.08455e-09 0.0169172 -6.07875e-09
2.8789e-09 0.0169172 -6.10799e-09
2.33523e-09 0.0169172 -5.6863e-09
2.19758e-09 0.0169172 -5.98992e-09
3.18326e-09 0.0169172 -5.96122e-09
3.073e-09 0.0169172 -5.86769e-09
3.19479e-09 0.0169172 -6.20357e-09
4.12771e-09 0.0184676 -4.6119e-09
3.22461e-09 0.0184676 -3.30351e-09
3.7901e-09 0.0184676 -3.92485e-09
3.18289e-09 0.0184676 -3.80375e-09
3.63147e-09 0.0184676 -3.74022e-09
3.4818e-09 0.0184676 -4.01765e-09
3.69696e-09 0.0184676 -4.07887e-09
3.42265e-09 0.0184676 -4.18986e-09
3.09067e-09 0.0184676 -3.90669e-09
3.81471e-09 0.0184676 -3.92669e-09
2.96235e-09 0.0184676 -4.16043e-09
3.58708e-09 0.0184676 -4.37469e-09
3.67351e-09 0.0184676 -4.01348e-09
3.2508e-09 0.0184676 -4.27046e-09
3.94648e-09 0.0184676 -4.19051e-09
3.4146e-09 0.0184676 -3.88757e-09
3.25436e-09 0.0184676 -4.08406e-09
3.58e-09 0.0184676 -3.95052e-09
3.49228e-09 0.0184676 -4.26025e-09
3.66569e-09 0.0184676 -4.23276e-09
2.93819e-09 0.0184676 -4.48075e-09
3.34626e-09 0.0184676 -4.22508e-09
3.48403e-09 0.0184676 -4.10375e-09
3.66897e-09 0.0184676 -4.48109e-09
3.52411e-09 0.0184676 -4.22675e-09
4.79148e-09 0.0197468 -1.33196e-09
4.82947e-09 0.0197468 -1.77833e-09
4.16585e-09 0.0197468 -1.59833e-09
3.64729e-09 0.0197468 -2.09058e-09
3.90226e-09 0.0197468 -1.91549e-09
5.37301e-09 0.0197468 -1.72371e-09
4.58661e-09 0.0197468 -1.8396e-09
4.14717e-09 0.0197468 -1.90514e-09
4.17045e-09 0.0197468 -1.73889e-09
3.59415e-09 0.0197468 -1.69366e-09
5.15282e-09 0.0197468 -1.71288e-09
4.62234e-09 0.0197468 -1.65247e-09
4.4942e-09 0.0197468 -1.80347e-09
4.04566e-09 0.0197468 -1.89019e-09
4.17827e-09 0.0197468 -1.57339e-09
5.25403e-09 0.0197468 -1.96917e-09
4.89056e-09 0.0197468 -1.98818e-09
4.38654e-09 0.0197468 -1.52149e-09
4.24087e-09 0.0197468 -1.54583e-09
4.32729e-09 0.0197468 -1.63022e-09
4.78982e-09 0.0197468 -2.2468e-09
4.24757e-09 0.0197468 -1.81175e-09
4.41205e-09 0.0197468 -1.27052e-09
4.5225e-09 0.0197468 -1.45885e-09
3.65051e-09 0.0197468 -1.84353e-09
6.16367e-09 0.0207671 1.71771e-09
5.5363e-09 0.0207671 1.09975e-09
4.70755e-09 0.0207671 4.04752e-10
4.71026e-09 0.0207671 7.41971e-10
4.61972e-09 0.0207671 1.28412e-09
6.15159e-09 0.0207671 1.50206e-09
5.70082e-09 0.0207671 9.77338e-10
5.39124e-09 0.0207671 9.21601e-10
4.89949e-09 0.0207671 1.081e-09
4.99785e-09 0.0207671 9.14623e-10
6.02435e-09 0.0207671 1.15786e-09
5.9396e-09 0.0207671 1.30124e-09
5.5194e-09 0.0207671 1.05724e-09
5.12097e-09 0.0207671 1.2396e-09
5.11211e-09 0.0207671 1.10718e-09
6.472e-09 0.0207671 1.02477e-09
5.91129e-09 0.0207671 9.14198e-10
5.69673e-09 0.0207671 1.23829e-09
5.2929e-09 0.0207671 1.30159e-09
4.71325e-09 0.0207671 1.37487e-09
6.13927e-09 0.0207671 5.04413e-10
6.10511e-09 0.0207671 6.55454e-10
5.76526e-09 0.0207671 9.57373e-10
4.91054e-09 0.0207671 1.66161e-09
4.44404e-09 0.0207671 6.34047e-10
7.43868e-09 0.0215552 4.77991e-09
6.84262e-09 0.0215552 4.24529e-09
6.63445e-09 0.0215552 4.63179e-09
6.32704e-09 0.0215552 4.65997e-09
5.85292e-09 0.0215552 4.93119e-09
7.87229e-09 0.0215552 4.63145e-09
6.98434e-09 0.0215552 4.70195e-09
6.42538e-09 0.0215552 4.32583e-09
6.08564e-09 0.0215552 4.42301e-09
5.62055e-09 0.0215552 4.43965e-09
7.76352e-09 0.0215552 4.57972e-09
7.24047e-09 0.0215552 4.48286e-09
6.66379e-09 0.0215552 4.75205e-09
5.85914e-09 0.0215552 4.34864e-09
6.08789e-09 0.0215552 4.79818e-09
7.52211e-09 0.0215552 4.22897e-09
7.26321e-09 0.0215552 4.60778e-09
6.90965e-09 0.0215552 4.5873e-09
6.18697e-09 0.0215552 4.69503e-09
5.53735e-09 0.0215552 4.51259e-09
7.58469e-09 0.0215552 4.27726e-09
7.29559e-09 0.0215552 4.34527e-09
7.03334e-09 0.0215552 4.29451e-09
6.53267e-09 0.0215552 4.73505e-09
4.46496e-09 0.0215552 4.06504e-09
9.66226e-09 0.0221524 8.33346e-09
8.72908e-09 0.0221524 8.73535e-09
7.79926e-09 0.0221524 8.35867e-09
7.16001e-09 0.0221524 8.44858e-09
6.46115e-09 0.0221524 8.66421e-09
9.41123e-09 0.0221524 8.65677e-09
8.54218e-09 0.0221524 8.47217e-09
7.83357e-09 0.0221524 8.54185e-09
7.24642e-09 0.0221524 8.29326e-09
7.11531e-09 0.0221524 8.5022e-09
9.32627e-09 0.0221524 8.30575e-09
8.45687e-09 0.0221524 8.20547e-09
7.96478e-09 0.0221523 8.33664e-09
7.23867e-09 0.0221523 8.51622e-09
6.67702e-09 0.0221523 8.37024e-09
9.01064e-09 0.0221524 8.18494e-09
8.62562e-09 0.0221523 8.22485e-09
8.13212e-09 0.0221523 8.35953e-09
7.31276e-09 0.0221523 8.09157e-09
6.85975e-09 0.0221523 8.1077e-09
9.04502e-09 0.0221523 8.25788e-09
8.60493e-09 0.0221523 8.11452e-09
8.3089e-09 0.0221523 8.05464e-09
7.17735e-09 0.0221523 7.80463e-09
7.66517e-09 0.0221523 7.88348e-09
1.05448e-08 0.0226127 1.26555e-08
1.03215e-08 0.0226127 1.21076e-08
9.19847e-09 0.0226127 1.2198e-08
8.62906e-09 0.0226127 1.2106e-08
8.55921e-09 0.0226127 1.24659e-08
1.11083e-08 0.0226127 1.20058e-08
1.00053e-08 0.0226127 1.22442e-08
9.34327e-09 0.0226127 1.22628e-08
8.90331e-09 0.0226127 1.2622e-08
7.94156e-09 0.0226127 1.2361e-08
1.0658e-08 0.0226127 1.1729e-08
1.003e-08 0.0226127 1.22548e-08
9.53324e-09 0.0226127 1.21434e-08
8.93231e-09 0.0226127 1.23133e-08
7.99175e-09 0.0226127 1.22641e-08
1.0137e-08 0.0226127 1.21951e-08
1.00605e-08 0.0226127 1.20677e-08
9.60532e-09 0.0226127 1.22067e-08
8.78108e-09 0.0226127 1.21269e-08
8.15084e-09 0.0226127 1.18055e-08
1.02907e-08 0.0226127 1.19957e-08
1.00102e-08 0.0226127 1.20082e-08
9.38893e-09 0.0226127 1.20308e-08
9.24964e-09 0.0226127 1.21833e-08
8.33143e-09 0.0226127 1.18002e-08
1.27189e-08 0.0230008 1.59242e-08
1.19045e-08 0.0230008 1.57979e-08
1.06845e-08 0.0230008 1.6417e-08
1.02579e-08 0.0230008 1.62057e-08
9.54891e-09 0.0230008 1.63114e-08
1.27625e-08 0.0230008 1.58816e-08
1.16387e-08 0.0230008 1.59501e-08
1.09783e-08 0.0230008 1.60128e-08
1.03176e-08 0.0230008 1.61327e-08
9.45626e-09 0.0230008 1.62497e-08
1.22737e-08 0.0230008 1.57473e-08
1.15007e-08 0.0230008 1.60284e-08
1.10626e-08 0.0230008 1.60716e-08
1.03533e-08 0.0230008 1.55655e-08
9.55841e-09 0.0230008 1.58103e-08
1.18196e-08 0.0230008 1.59172e-08
1.14538e-08 0.0230008 1.58817e-08
1.11779e-08 0.0230008 1.59696e-08
1.01615e-08 0.0230008 1.58638e-08
9.55464e-09 0.0230008 1.60876e-08
1.16043e-08 0.0230008 1.59058e-08
1.13845e-08 0.0230008 1.62264e-08
1.10507e-08 0.0230008 1.60185e-08
9.96291e-09 0.0230008 1.61238e-08
9.72922e-09 0.0230008 1.59173e-08
1.38521e-08 0.0233878 1.94716e-08
1.32501e-08 0.0233878 1.96847e-08
1.25878e-08 0.0233878 1.95672e-08
1.16278e-08 0.0233878 1.94431e-08
1.08719e-08 0.0233878 1.95439e-08
1.35692e-08 0.0233878 1.95584e-08
1.31124e-08 0.0233878 1.94397e-08
1.24995e-08 0.0233878 1.96982e-08
1.16213e-08 0.0233878 1.94352e-08
1.11259e-08 0.0233878 1.92469e-08
1.36944e-08 0.0233878 1.95739e-08
1.30652e-08 0.0233878 1.9368e-08
1.24047e-08 0.0233878 1.9262e-08
1.16848e-08 0.0233878 1.93827e-08
1.10377e-08 0.0233878 1.90112e-08
1.35053e-08 0.0233878 1.92703e-08
1.29192e-08 0.0233878 1.94e-08
1.23728e-08 0.0233878 1.9378e-08
1.17678e-08 0.0233878 1.93079e-08
1.10477e-08 0.0233878 1.92659e-08
1.35183e-08 0.0233878 1.90422e-08
1.27681e-08 0.0233878 1.93644e-08
1.24347e-08 0.0233878 1.94524e-08
1.14655e-08 0.0233878 1.92452e-08
1.07903e-08 0.0233878 1.93939e-08
1.45692e-08 0.0238462 2.24806e-08
1.44273e-08 0.0238462 2.29733e-08
1.36614e-08 0.0238462 2.28561e-08
1.29164e-08 0.0238462 2.23702e-08
1.26839e-08 0.0238462 2.20633e-08
1.50571e-08 0.0238462 2.23431e-08
1.43844e-08 0.0238462 2.25261e-08
1.37529e-08 0.0238462 2.24e-08
1.3046e-08 0.0238462 2.248e-08
1.24812e-08 0.0238462 2.21733e-08
1.49042e-08 0.0238462 2.23608e-08
1.44012e-08 0.0238462 2.22843e-08
1.38879e-08 0.0238462 2.24404e-08
1.31249e-08 0.0238462 2.24829e-08
1.25572e-08 0.0238462 2.24498e-08
1.48391e-08 0.0238462 2.18367e-08
1.41629e-08 0.0238462 2.23082e-08
1.36904e-08 0.0238462 2.2472e-08
1.29059e-08 0.0238462 2.22951e-08
1.2901e-08 0.0238462 2.2559e-08
1.45435e-08 0.0238462 2.19601e-08
1.46151e-08 0.0238462 2.20295e-08
1.35555e-08 0.0238462 2.19474e-08
1.34297e-08 0.0238462 2.25983e-08
1.32084e-08 0.0238462 2.19263e-08
1.59889e-08 0.0244431 2.48076e-08
1.52826e-08 0.0244431 2.46172e-08
1.51768e-08 0.0244431 2.45869e-08
1.42098e-08 0.0244431 2.49059e-08
1.40017e-08 0.0244431 2.44569e-08
1.65743e-08 0.0244431 2.48308e-08
1.52069e-08 0.0244431 2.45601e-08
1.48416e-08 0.0244431 2.48239e-08
1.41144e-08 0.0244431 2.46967e-08
1.37217e-08 0.0244431 2.47937e-08
1.61804e-08 0.0244431 2.4017e-08
1.54018e-08 0.0244431 2.4353e-08
1.4928e-08 0.0244431 2.44819e-08
1.45103e-08 0.0244431 2.47017e-08
1.36286e-08 0.0244431 2.46897e-08
1.62487e-08 0.0244431 2.43887e-08
1.56836e-08 0.0244431 2.41214e-08
1.49847e-08 0.0244431 2.43212e-08
1.46606e-08 0.0244431 2.43624e-08
1.40156e-08 0.0244431 2.46684e-08
1.62508e-08 0.0244431 2.47843e-08
1.53078e-08 0.0244431 2.41449e-08
1.52849e-08 0.0244431 2.42729e-08
1.45965e-08 0.0244431 2.43393e-08
1.36495e-08 0.0244431 2.51054e-08
1.62888e-08 0.0252333 2.5946e-08
1.57595e-08 0.0252333 2.57855e-08
1.59107e-08 0.0252333 2.60042e-08
1.56522e-08 0.0252333 2.56668e-08
1.4627e-08 0.0252333 2.61635e-08
1.65312e-08 0.0252333 2.52537e-08
1.62379e-08 0.0252333 2.59408e-08
1.58072e-08 0.0252333 2.59737e-08
1.53065e-08 0.0252333 2.59297e-08
1.49846e-08 0.0252333 2.54603e-08
1.67698e-08 0.0252333 2.57324e-08
1.62423e-08 0.0252333 2.55162e-08
1.59327e-08 0.0252333 2.55776e-08
1.561e-08 0.0252333 2.57516e-08
1.54944e-08 0.0252333 2.59393e-08
1.66788e-08 0.0252333 2.55665e-08
1.6287e-08 0.0252333 2.57795e-08
1.60992e-08 0.0252333 2.5559e-08
1.59853e-08 0.0252333 2.57866e-08
1.55091e-08 0.0252333 2.58299e-08
1.70335e-08 0.0252333 2.62639e-08
1.67594e-08 0.0252333 2.54575e-08
1.57492e-08 0.0252333 2.57678e-08
1.5841e-08 0.0252333 2.53246e-08
1.54019e-08 0.0252333 2.58248e-08
1.719e-08 0.0262514 2.61675e-08
1.71934e-08 0.0262514 2.59358e-08
1.66044e-08 0.0262514 2.57033e-08
1.67616e-08 0.0262514 2.53052e-08
1.63213e-08 0.0262514 2.56954e-08
1.67989e-08 0.0262514 2.59696e-08
1.6837e-08 0.0262514 2.59094e-08
1.71259e-08 0.0262514 2.55827e-08
1.66224e-08 0.0262514 2.58283e-08
1.62955e-08 0.0262514 2.56537e-08
1.68085e-08 0.0262514 2.60147e-08
1.69966e-08 0.0262514 2.59907e-08
1.68724e-08 0.0262514 2.61383e-08
1.70087e-08 0.0262514 2.58528e-08
1.70176e-08 0.0262514 2.57217e-08
1.71244e-08 0.0262514 2.62587e-08
1.70949e-08 0.0262514 2.61165e-08
1.71128e-08 0.0262514 2.62202e-08
1.69976e-08 0.0262514 2.5998e-08
1.75924e-08 0.0262514 2.58562e-08
1.73662e-08 0.0262514 2.57015e-08
1.74996e-08 0.0262514 2.61297e-08
1.70166e-08 0.0262514 2.59971e-08
1.69337e-08 0.0262514 2.61695e-08
1.77242e-08 0.0262514 2.54597e-08
1.62932e-08 0.0275052 2.55444e-08
1.72734e-08 0.0275052 2.51249e-08
1.79804e-08 0.0275052 2.49069e-08
1.78337e-08 0.0275052 2.51127e-08
1.67847e-08 0.0275052 2.5068e-08
1.72854e-08 0.0275052 2.51731e-08
1.75061e-08 0.0275052 2.51731e-08
1.77793e-08 0.0275052 2.49337e-08
1.78575e-08 0.0275052 2.47617e-08
1.80189e-08 0.0275052 2.47015e-08
1.72884e-08 0.0275052 2.56479e-08
1.77801e-08 0.0275052 2.54878e-08
1.79518e-08 0.0275052 2.52869e-08
1.80275e-08 0.0275052 2.51044e-08
1.80606e-08 0.0275052 2.47744e-08
1.74522e-08 0.0275052 2.54705e-08
1.78501e-08 0.0275052 2.5467e-08
1.78435e-08 0.0275052 2.57489e-08
1.80717e-08 0.0275052 2.52001e-08
1.89304e-08 0.0275052 2.50842e-08
1.76288e-08 0.0275052 2.54929e-08
1.78978e-08 0.0275052 2.58555e-08
1.81742e-08 0.0275052 2.52905e-08
1.7874e-08 0.0275052 2.51526e-08
1.88828e-08 0.0275052 2.48578e-08
1.74403e-08 0.0289709 2.34365e-08
1.80185e-08 0.0289709 2.25402e-08
1.90377e-08 0.0289709 2.34361e-08
1.86175e-08 0.0289709 2.29059e-08
1.97048e-08 0.0289709 2.32868e-08
1.73111e-08 0.0289709 2.33106e-08
1.81996e-08 0.0289709 2.32288e-08
1.89274e-08 0.0289709 2.31739e-08
1.90508e-08 0.0289709 2.31921e-08
1.93033e-08 0.028971 2.3419e-08
1.7676e-08 0.0289709 2.3546e-08
1.83952e-08 0.0289709 2.36475e-08
1.88917e-08 0.0289709 2.37611e-08
1.88839e-08 0.0289709 2.37158e-08
1.97601e-08 0.0289709 2.32979e-08
1.79598e-08 0.0289709 2.39523e-08
1.84041e-08 0.0289709 2.38825e-08
1.85603e-08 0.028971 2.39029e-08
1.89446e-08 0.0289709 2.3404e-08
1.9683e-08 0.0289709 2.35814e-08
1.81999e-08 0.0289709 2.37167e-08
1.81466e-08 0.028971 2.40749e-08
1.86072e-08 0.028971 2.35743e-08
1.90758e-08 0.0289709 2.36871e-08
1.9544e-08 0.0289709 2.35063e-08
1.79063e-08 0.0305913 2.07484e-08
1.90321e-08 0.0305913 2.12297e-08
1.96617e-08 0.0305913 1.97951e-08
1.98781e-08 0.0305913 2.08034e-08
1.98826e-08 0.0305913 2.07579e-08
1.77875e-08 0.0305913 2.10524e-08
1.90065e-08 0.0305913 2.04801e-08
1.96814e-08 0.0305913 2.06944e-08
1.99198e-08 0.0305913 2.10327e-08
2.03296e-08 0.0305913 2.09594e-08
1.83679e-08 0.0305913 2.09693e-08
1.89577e-08 0.0305913 2.11965e-08
1.95422e-08 0.0305913 2.12954e-08
1.98662e-08 0.0305913 2.09554e-08
2.07574e-08 0.0305913 2.13636e-08
1.82658e-08 0.0305913 2.12125e-08
1.9309e-08 0.0305913 2.10738e-08
1.94441e-08 0.0305913 2.13137e-08
1.99713e-08 0.0305913 2.16485e-08
2.05979e-08 0.0305913 2.13205e-08
1.95782e-08 0.0305913 2.1621e-08
1.93706e-08 0.0305913 2.08255e-08
1.92489e-08 0.0305913 2.12941e-08
1.94954e-08 0.0305913 2.14398e-08
1.99709e-08 0.0305913 2.13622e-08
1.90216e-08 0.0322782 1.74674e-08
1.9294e-08 0.0322782 1.74942e-08
1.99467e-08 0.0322782 1.80918e-08
2.08497e-08 0.0322782 1.78873e-08
2.14156e-08 0.0322782 1.73569e-08
1.85848e-08 0.0322782 1.7969e-08
1.93179e-08 0.0322782 1.77968e-08
2.00272e-08 0.0322782 1.7974e-08
2.05278e-08 0.0322782 1.7679e-08
2.17914e-08 0.0322782 1.81817e-08
1.89547e-08 0.0322782 1.8187e-08
1.95816e-08 0.0322782 1.82537e-08
2.02537e-08 0.0322782 1.78627e-08
2.05863e-08 0.0322782 1.82666e-08
2.19345e-08 0.0322782 1.80303e-08
1.92195e-08 0.0322782 1.79211e-08
1.9779e-08 0.0322782 1.82266e-08
2.05447e-08 0.0322782 1.82056e-08
2.02658e-08 0.0322782 1.8287e-08
2.21175e-08 0.0322782 1.82889e-08
1.79887e-08 0.0322782 1.75132e-08
1.99449e-08 0.0322782 1.81663e-08
2.11228e-08 0.0322782 1.81555e-08
2.09645e-08 0.0322782 1.86345e-08