<?xml version="1.0"?>
<VTKFile type="UnstructuredGrid" version="0.1" byte_order="LittleEndian">
<UnstructuredGrid>
<Piece NumberOfPoints="1025" NumberOfCells="640">
<Points>
<DataArray type="Float32" NumberOfComponents="3" format="ascii">
0 0 0
0.025 0 0
0.05 0 0
0.075 0 0
0.1 0 0
0 0.025 0
0.025 0.025 0
0.05 0.025 0
0.075 0.025 0
0.1 0.025 0
0 0.05 0
0.025 0.05 0
0.05 0.05 0
0.075 0.05 0
0.1 0.05 0
0 0.075 0
0.025 0.075 0
0.05 0.075 0
0.075 0.075 0
0.1 0.075 0
0 0.1 0
0.025 0.1 0
0.05 0.1 0
0.075 0.1 0
0.1 0.1 0
0 0 0.025
0.025 0 0.025
0.05 0 0.025
0.075 0 0.025
0.1 0 0.025
0 0.025 0.025
0.025 0.025 0.025
0.05 0.025 0.025
0.075 0.025 0.025
0.1 0.025 0.025
0 0.05 0.025
0.025 0.05 0.025
0.05 0.05 0.025
0.075 0.05 0.025
0.1 0.05 0.025
0 0.075 0.025
0.025 0.075 0.025
0.05 0.075 0.025
0.075 0.075 0.025
0.1 0.075 0.025
0 0.1 0.025
0.025 0.1 0.025
0.05 0.1 0.025
0.075 0.1 0.025
0.1 0.1 0.025
0 0 0.05
0.025 0 0.05
0.05 0 0.05
0.075 0 0.05
0.1 0 0.05
0 0.025 0.05
0.025 0.025 0.05
0.05 0.025 0.05
0.075 0.025 0.05
0.1 0.025 0.05
0 0.05 0.05
0.025 0.05 0.05
0.05 0.05 0.05
0.075 0.05 0.05
0.1 0.05 0.05
0 0.075 0.05
0.025 0.075 0.05
0.05 0.075 0.05
0.075 0.075 0.05
0.1 0.075 0.05
0 0.1 0.05
0.025 0.1 0.05
0.05 0.1 0.05
0.075 0.1 0.05
0.1 0.1 0.05
0 0 0.075
0.025 0 0.075
0.05 0 0.075
0.075 0 0.075
0.1 0 0.075
0 0.025 0.075
0.025 0.025 0.075
0.05 0.025 0.075
0.075 0.025 0.075
0.1 0.025 0.075
0 0.05 0.075
0.025 0.05 0.075
0.05 0.05 0.075
0.075 0.05 0.075
0.1 0.05 0.075
0 0.075 0.075
0.025 0.075 0.075
0.05 0.075 0.075
0.075 0.075 0.075
0.1 0.075 0.075
0 0.1 0.075
0.025 0.1 0.075
0.05 0.1 0.075
0.075 0.1 0.075
0.1 0.1 0.075
0 0 0.1
0.025 0 0.1
0.05 0 0.1
0.075 0 0.1
0.1 0 0.1
0 0.025 0.1
0.025 0.025 0.1
0.05 0.025 0.1
0.075 0.025 0.1
0.1 0.025 0.1
0 0.05 0.1
0.025 0.05 0.1
0.05 0.05 0.1
0.075 0.05 0.1
0.1 0.05 0.1
0 0.075 0.1
0.025 0.075 0.1
0.05 0.075 0.1
0.075 0.075 0.1
0.1 0.075 0.1
0 0.1 0.1
0.025 0.1 0.1
0.05 0.1 0.1
0.075 0.1 0.1
0.1 0.1 0.1
0 0 0.125
0.025 0 0.125
0.05 0 0.125
0.075 0 0.125
0.1 0 0.125
0 0.025 0.125
0.025 0.025 0.125
0.05 0.025 0.125
0.075 0.025 0.125
0.1 0.025 0.125
0 0.05 0.125
0.025 0.05 0.125
0.05 0.05 0.125
0.075 0.05 0.125
0.1 0.05 0.125
0 0.075 0.125
0.025 0.075 0.125
0.05 0.075 0.125
0.075 0.075 0.125
0.1 0.075 0.125
0 0.1 0.125
0.025 0.1 0.125
0.05 0.1 0.125
0.075 0.1 0.125
0.1 0.1 0.125
0 0 0.15
0.025 0 0.15
0.05 0 0.15
0.075 0 0.15
0.1 0 0.15
0 0.025 0.15
0.025 0.025 0.15
0.05 0.025 0.15
0.075 0.025 0.15
0.1 0.025 0.15
0 0.05 0.15
0.025 0.05 0.15
0.05 0.05 0.15
0.075 0.05 0.15
0.1 0.05 0.15
0 0.075 0.15
0.025 0.075 0.15
0.05 0.075 0.15
0.075 0.075 0.15
0.1 0.075 0.15
0 0.1 0.15
0.025 0.1 0.15
0.05 0.1 0.15
0.075 0.1 0.15
0.1 0.1 0.15
0 0 0.175
0.025 0 0.175
0.05 0 0.175
0.075 0 0.175
0.1 0 0.175
0 0.025 0.175
0.025 0.025 0.175
0.05 0.025 0.175
0.075 0.025 0.175
0.1 0.025 0.175
0 0.05 0.175
0.025 0.05 0.175
0.05 0.05 0.175
0.075 0.05 0.175
0.1 0.05 0.175
0 0.075 0.175
0.025 0.075 0.175
0.05 0.075 0.175
0.075 0.075 0.175
0.1 0.075 0.175
0 0.1 0.175
0.025 0.1 0.175
0.05 0.1 0.175
0.075 0.1 0.175
0.1 0.1 0.175
0 0 0.2
0.025 0 0.2
0.05 0 0.2
0.075 0 0.2
0.1 0 0.2
0 0.025 0.2
0.025 0.025 0.2
0.05 0.025 0.2
0.075 0.025 0.2
0.1 0.025 0.2
0 0.05 0.2
0.025 0.05 0.2
0.05 0.05 0.2
0.075 0.05 0.2
0.1 0.05 0.2
0 0.075 0.2
0.025 0.075 0.2
0.05 0.075 0.2
0.075 0.075 0.2
0.1 0.075 0.2
0 0.1 0.2
0.025 0.1 0.2
0.05 0.1 0.2
0.075 0.1 0.2
0.1 0.1 0.2
0 0 0.225
0.025 0 0.225
0.05 0 0.225
0.075 0 0.225
0.1 0 0.225
0 0.025 0.225
0.025 0.025 0.225
0.05 0.025 0.225
0.075 0.025 0.225
0.1 0.025 0.225
0 0.05 0.225
0.025 0.05 0.225
0.05 0.05 0.225
0.075 0.05 0.225
0.1 0.05 0.225
0 0.075 0.225
0.025 0.075 0.225
0.05 0.075 0.225
0.075 0.075 0.225
0.1 0.075 0.225
0 0.1 0.225
0.025 0.1 0.225
0.05 0.1 0.225
0.075 0.1 0.225
0.1 0.1 0.225
0 0 0.25
0.025 0 0.25
0.05 0 0.25
0.075 0 0.25
0.1 0 0.25
0 0.025 0.25
0.025 0.025 0.25
0.05 0.025 0.25
0.075 0.025 0.25
0.1 0.025 0.25
0 0.05 0.25
0.025 0.05 0.25
0.05 0.05 0.25
0.075 0.05 0.25
0.1 0.05 0.25
0 0.075 0.25
0.025 0.075 0.25
0.05 0.075 0.25
0.075 0.075 0.25
0.1 0.075 0.25
0 0.1 0.25
0.025 0.1 0.25
0.05 0.1 0.25
0.075 0.1 0.25
0.1 0.1 0.25
0 0 0.275
0.025 0 0.275
0.05 0 0.275
0.075 0 0.275
0.1 0 0.275
0 0.025 0.275
0.025 0.025 0.275
0.05 0.025 0.275
0.075 0.025 0.275
0.1 0.025 0.275
0 0.05 0.275
0.025 0.05 0.275
0.05 0.05 0.275
0.075 0.05 0.275
0.1 0.05 0.275
0 0.075 0.275
0.025 0.075 0.275
0.05 0.075 0.275
0.075 0.075 0.275
0.1 0.075 0.275
0 0.1 0.275
0.025 0.1 0.275
0.05 0.1 0.275
0.075 0.1 0.275
0.1 0.1 0.275
0 0 0.3
0.025 0 0.3
0.05 0 0.3
0.075 0 0.3
0.1 0 0.3
0 0.025 0.3
0.025 0.025 0.3
0.05 0.025 0.3
0.075 0.025 0.3
0.1 0.025 0.3
0 0.05 0.3
0.025 0.05 0.3
0.05 0.05 0.3
0.075 0.05 0.3
0.1 0.05 0.3
0 0.075 0.3
0.025 0.075 0.3
0.05 0.075 0.3
0.075 0.075 0.3
0.1 0.075 0.3
0 0.1 0.3
0.025 0.1 0.3
0.05 0.1 0.3
0.075 0.1 0.3
0.1 0.1 0.3
0 0 0.325
0.025 0 0.325
0.05 0 0.325
0.075 0 0.325
0.1 0 0.325
0 0.025 0.325
0.025 0.025 0.325
0.05 0.025 0.325
0.075 0.025 0.325
0.1 0.025 0.325
0 0.05 0.325
0.025 0.05 0.325
0.05 0.05 0.325
0.075 0.05 0.325
0.1 0.05 0.325
0 0.075 0.325
0.025 0.075 0.325
0.05 0.075 0.325
0.075 0.075 0.325
0.1 0.075 0.325
0 0.1 0.325
0.025 0.1 0.325
0.05 0.1 0.325
0.075 0.1 0.325
0.1 0.1 0.325
0 0 0.35
0.025 0 0.35
0.05 0 0.35
0.075 0 0.35
0.1 0 0.35
0 0.025 0.35
0.025 0.025 0.35
0.05 0.025 0.35
0.075 0.025 0.35
0.1 0.025 0.35
0 0.05 0.35
0.025 0.05 0.35
0.05 0.05 0.35
0.075 0.05 0.35
0.1 0.05 0.35
0 0.075 0.35
0.025 0.075 0.35
0.05 0.075 0.35
0.075 0.075 0.35
0.1 0.075 0.35
0 0.1 0.35
0.025 0.1 0.35
0.05 0.1 0.35
0.075 0.1 0.35
0.1 0.1 0.35
0 0 0.375
0.025 0 0.375
0.05 0 0.375
0.075 0 0.375
0.1 0 0.375
0 0.025 0.375
0.025 0.025 0.375
0.05 0.025 0.375
0.075 0.025 0.375
0.1 0.025 0.375
0 0.05 0.375
0.025 0.05 0.375
0.05 0.05 0.375
0.075 0.05 0.375
0.1 0.05 0.375
0 0.075 0.375
0.025 0.075 0.375
0.05 0.075 0.375
0.075 0.075 0.375
0.1 0.075 0.375
0 0.1 0.375
0.025 0.1 0.375
0.05 0.1 0.375
0.075 0.1 0.375
0.1 0.1 0.375
0 0 0.4
0.025 0 0.4
0.05 0 0.4
0.075 0 0.4
0.1 0 0.4
0 0.025 0.4
0.025 0.025 0.4
0.05 0.025 0.4
0.075 0.025 0.4
0.1 0.025 0.4
0 0.05 0.4
0.025 0.05 0.4
0.05 0.05 0.4
0.075 0.05 0.4
0.1 0.05 0.4
0 0.075 0.4
0.025 0.075 0.4
0.05 0.075 0.4
0.075 0.075 0.4
0.1 0.075 0.4
0 0.1 0.4
0.025 0.1 0.4
0.05 0.1 0.4
0.075 0.1 0.4
0.1 0.1 0.4
0 0 0.425
0.025 0 0.425
0.05 0 0.425
0.075 0 0.425
0.1 0 0.425
0 0.025 0.425
0.025 0.025 0.425
0.05 0.025 0.425
0.075 0.025 0.425
0.1 0.025 0.425
0 0.05 0.425
0.025 0.05 0.425
0.05 0.05 0.425
0.075 0.05 0.425
0.1 0.05 0.425
0 0.075 0.425
0.025 0.075 0.425
0.05 0.075 0.425
0.075 0.075 0.425
0.1 0.075 0.425
0 0.1 0.425
0.025 0.1 0.425
0.05 0.1 0.425
0.075 0.1 0.425
0.1 0.1 0.425
0 0 0.45
0.025 0 0.45
0.05 0 0.45
0.075 0 0.45
0.1 0 0.45
0 0.025 0.45
0.025 0.025 0.45
0.05 0.025 0.45
0.075 0.025 0.45
0.1 0.025 0.45
0 0.05 0.45
0.025 0.05 0.45
0.05 0.05 0.45
0.075 0.05 0.45
0.1 0.05 0.45
0 0.075 0.45
0.025 0.075 0.45
0.05 0.075 0.45
0.075 0.075 0.45
0.1 0.075 0.45
0 0.1 0.45
0.025 0.1 0.45
0.05 0.1 0.45
0.075 0.1 0.45
0.1 0.1 0.45
0 0 0.475
0.025 0 0.475
0.05 0 0.475
0.075 0 0.475
0.1 0 0.475
0 0.025 0.475
0.025 0.025 0.475
0.05 0.025 0.475
0.075 0.025 0.475
0.1 0.025 0.475
0 0.05 0.475
0.025 0.05 0.475
0.05 0.05 0.475
0.075 0.05 0.475
0.1 0.05 0.475
0 0.075 0.475
0.025 0.075 0.475
0.05 0.075 0.475
0.075 0.075 0.475
0.1 0.075 0.475
0 0.1 0.475
0.025 0.1 0.475
0.05 0.1 0.475
0.075 0.1 0.475
0.1 0.1 0.475
0 0 0.5
0.025 0 0.5
0.05 0 0.5
0.075 0 0.5
0.1 0 0.5
0 0.025 0.5
0.025 0.025 0.5
0.05 0.025 0.5
0.075 0.025 0.5
0.1 0.025 0.5
0 0.05 0.5
0.025 0.05 0.5
0.05 0.05 0.5
0.075 0.05 0.5
0.1 0.05 0.5
0 0.075 0.5
0.025 0.075 0.5
0.05 0.075 0.5
0.075 0.075 0.5
0.1 0.075 0.5
0 0.1 0.5
0.025 0.1 0.5
0.05 0.1 0.5
0.075 0.1 0.5
0.1 0.1 0.5
0 0 0.525
0.025 0 0.525
0.05 0 0.525
0.075 0 0.525
0.1 0 0.525
0 0.025 0.525
0.025 0.025 0.525
0.05 0.025 0.525
0.075 0.025 0.525
0.1 0.025 0.525
0 0.05 0.525
0.025 0.05 0.525
0.05 0.05 0.525
0.075 0.05 0.525
0.1 0.05 0.525
0 0.075 0.525
0.025 0.075 0.525
0.05 0.075 0.525
0.075 0.075 0.525
0.1 0.075 0.525
0 0.1 0.525
0.025 0.1 0.525
0.05 0.1 0.525
0.075 0.1 0.525
0.1 0.1 0.525
0 0 0.55
0.025 0 0.55
0.05 0 0.55
0.075 0 0.55
0.1 0 0.55
0 0.025 0.55
0.025 0.025 0.55
0.05 0.025 0.55
0.075 0.025 0.55
0.1 0.025 0.55
0 0.05 0.55
0.025 0.05 0.55
0.05 0.05 0.55
0.075 0.05 0.55
0.1 0.05 0.55
0 0.075 0.55
0.025 0.075 0.55
0.05 0.075 0.55
0.075 0.075 0.55
0.1 0.075 0.55
0 0.1 0.55
0.025 0.1 0.55
0.05 0.1 0.55
0.075 0.1 0.55
0.1 0.1 0.55
0 0 0.575
0.025 0 0.575
0.05 0 0.575
0.075 0 0.575
0.1 0 0.575
0 0.025 0.575
0.025 0.025 0.575
0.05 0.025 0.575
0.075 0.025 0.575
0.1 0.025 0.575
0 0.05 0.575
0.025 0.05 0.575
0.05 0.05 0.575
0.075 0.05 0.575
0.1 0.05 0.575
0 0.075 0.575
0.025 0.075 0.575
0.05 0.075 0.575
0.075 0.075 0.575
0.1 0.075 0.575
0 0.1 0.575
0.025 0.1 0.575
0.05 0.1 0.575
0.075 0.1 0.575
0.1 0.1 0.575
0 0 0.6
0.025 0 0.6
0.05 0 0.6
0.075 0 0.6
0.1 0 0.6
0 0.025 0.6
0.025 0.025 0.6
0.05 0.025 0.6
0.075 0.025 0.6
0.1 0.025 0.6
0 0.05 0.6
0.025 0.05 0.6
0.05 0.05 0.6
0.075 0.05 0.6
0.1 0.05 0.6
0 0.075 0.6
0.025 0.075 0.6
0.05 0.075 0.6
0.075 0.075 0.6
0.1 0.075 0.6
0 0.1 0.6
0.025 0.1 0.6
0.05 0.1 0.6
0.075 0.1 0.6
0.1 0.1 0.6
0 0 0.625
0.025 0 0.625
0.05 0 0.625
0.075 0 0.625
0.1 0 0.625
0 0.025 0.625
0.025 0.025 0.625
0.05 0.025 0.625
0.075 0.025 0.625
0.1 0.025 0.625
0 0.05 0.625
0.025 0.05 0.625
0.05 0.05 0.625
0.075 0.05 0.625
0.1 0.05 0.625
0 0.075 0.625
0.025 0.075 0.625
0.05 0.075 0.625
0.075 0.075 0.625
0.1 0.075 0.625
0 0.1 0.625
0.025 0.1 0.625
0.05 0.1 0.625
0.075 0.1 0.625
0.1 0.1 0.625
0 0 0.65
0.025 0 0.65
0.05 0 0.65
0.075 0 0.65
0.1 0 0.65
0 0.025 0.65
0.025 0.025 0.65
0.05 0.025 0.65
0.075 0.025 0.65
0.1 0.025 0.65
0 0.05 0.65
0.025 0.05 0.65
0.05 0.05 0.65
0.075 0.05 0.65
0.1 0.05 0.65
0 0.075 0.65
0.025 0.075 0.65
0.05 0.075 0.65
0.075 0.075 0.65
0.1 0.075 0.65
0 0.1 0.65
0.025 0.1 0.65
0.05 0.1 0.65
0.075 0.1 0.65
0.1 0.1 0.65
0 0 0.675
0.025 0 0.675
0.05 0 0.675
0.075 0 0.675
0.1 0 0.675
[...]
<PointData Vectors="Displacement">
<DataArray type="Float32" Name="Displacement" NumberOfComponents="3" format="ascii">
0 0 0
0 0 0
0 0 0
0 0 0
0 0 0
0 0 0
0 0 0
0 0 0
0 0 0
0 0 0
0 0 0
0 0 0
0 0 0
0 0 0
0 0 0
0 0 0
0 0 0
0 0 0
0 0 0
0 0 0
0 0 0
0 0 0
0 0 0
0 0 0
0 0 0
5.47619e-10 0.000808955 2.44055e-09
7.23688e-11 0.000808955 2.38306e-09
-1.84411e-10 0.000808955 2.39407e-09
-4.94656e-10 0.000808955 2.42555e-09
-9.35177e-10 0.000808955 2.38338e-09
5.47529e-10 0.000808954 2.37979e-09
8.17724e-11 0.000808954 2.40508e-09
-2.16981e-10 0.000808954 2.41497e-09
-4.86809e-10 0.000808954 2.42195e-09
-9.25048e-10 0.000808954 2.39856e-09
5.57473e-10 0.000808954 2.39731e-09
8.63273e-11 0.000808954 2.38296e-09
-1.90039e-10 0.000808954 2.3877e-09
-4.9383e-10 0.000808954 2.39547e-09
-9.4559e-10 0.000808954 2.42035e-09
5.48918e-10 0.000808954 2.40678e-09
9.68587e-11 0.000808954 2.38811e-09
-1.74796e-10 0.000808954 2.40872e-09
-4.63362e-10 0.000808954 2.40551e-09
-9.8172e-10 0.000808954 2.41527e-09
5.60128e-10 0.000808953 2.37558e-09
8.9345e-11 0.000808953 2.44911e-09
-2.07152e-10 0.000808953 2.43744e-09
-4.56275e-10 0.000808954 2.40933e-09
-9.58015e-10 0.000808953 2.39761e-09
4.72716e-10 0.00159992 4.99621e-09
4.91704e-11 0.00159992 4.93635e-09
-4.07842e-10 0.00159992 5.01536e-09
-9.03722e-10 0.00159992 5.00561e-09
-1.4211e-09 0.00159992 4.96198e-09
5.08124e-10 0.00159992 4.97212e-09
4.57283e-11 0.00159992 4.96414e-09
-4.4416e-10 0.00159992 4.99211e-09
-8.86051e-10 0.00159992 4.97599e-09
-1.39995e-09 0.00159992 5.00166e-09
5.1167e-10 0.00159992 4.96868e-09
4.59198e-11 0.00159992 4.96417e-09
-3.98658e-10 0.00159992 4.96825e-09
-9.16053e-10 0.00159992 5.02026e-09
-1.41411e-09 0.00159992 5.03807e-09
6.00492e-10 0.00159992 5.03129e-09
4.05973e-11 0.00159991 4.99149e-09
-3.89658e-10 0.00159992 5.00026e-09
-8.94455e-10 0.00159992 5.03247e-09
-1.40053e-09 0.00159991 5.01672e-09
5.76785e-10 0.00159991 5.02024e-09
6.20279e-11 0.00159991 5.02898e-09
-4.11546e-10 0.00159991 5.0433e-09
-8.24038e-10 0.00159991 4.99652e-09
-1.49926e-09 0.00159991 5.06135e-09
2.6766e-10 0.00235763 7.76333e-09
-1.4305e-10 0.00235763 7.82947e-09
-7.23433e-10 0.00235763 7.79546e-09
-1.30384e-09 0.00235763 7.81231e-09
-1.86376e-09 0.00235763 7.74893e-09
3.03447e-10 0.00235763 7.79605e-09
-1.84642e-10 0.00235763 7.75087e-09
-6.7684e-10 0.00235763 7.7747e-09
-1.27966e-09 0.00235763 7.82774e-09
-1.85408e-09 0.00235763 7.79112e-09
3.72802e-10 0.00235763 7.77836e-09
-1.75442e-10 0.00235763 7.80393e-09
-7.10985e-10 0.00235763 7.81298e-09
-1.249e-09 0.00235763 7.78326e-09
-1.82062e-09 0.00235763 7.8255e-09
4.11264e-10 0.00235763 7.80063e-09
-1.54667e-10 0.00235763 7.77937e-09
-7.04262e-10 0.00235763 7.85835e-09
-1.2509e-09 0.00235763 7.84242e-09
-1.77099e-09 0.00235763 7.80487e-09
4.06756e-10 0.00235763 7.73376e-09
-2.13499e-10 0.00235763 7.80194e-09
-6.62378e-10 0.00235763 7.82257e-09
-1.23909e-09 0.00235763 7.86593e-09
-1.83061e-09 0.00235763 7.86998e-09
1.01836e-10 0.00307194 1.08468e-08
-4.37397e-10 0.00307194 1.09294e-08
-1.07182e-09 0.00307194 1.08164e-08
-1.80978e-09 0.00307194 1.07822e-08
-2.28285e-09 0.00307194 1.07914e-08
3.32259e-11 0.00307194 1.08641e-08
-4.93943e-10 0.00307194 1.08026e-08
-1.06459e-09 0.00307194 1.08267e-08
-1.70822e-09 0.00307194 1.07736e-08
-2.39549e-09 0.00307194 1.08357e-08
1.09746e-10 0.00307194 1.08507e-08
-4.4626e-10 0.00307194 1.07957e-08
-1.05834e-09 0.00307194 1.08054e-08
-1.74477e-09 0.00307194 1.08395e-08
-2.33019e-09 0.00307194 1.08251e-08
1.9468e-10 0.00307194 1.07717e-08
-4.6441e-10 0.00307194 1.0811e-08
-1.06186e-09 0.00307194 1.08119e-08
-1.70169e-09 0.00307194 1.08088e-08
-2.27855e-09 0.00307194 1.08471e-08
4.26552e-11 0.00307194 1.07404e-08
-4.32504e-10 0.00307194 1.07863e-08
-1.0671e-09 0.00307194 1.08575e-08
-1.60869e-09 0.00307194 1.08137e-08
-2.26867e-09 0.00307194 1.08953e-08
-2.2612e-10 0.00373939 1.42324e-08
-8.37437e-10 0.00373939 1.4205e-08
-1.50507e-09 0.00373939 1.40812e-08
-2.30579e-09 0.00373939 1.40856e-08
-3.00748e-09 0.00373939 1.41535e-08
-2.3016e-10 0.00373939 1.42214e-08
-8.68366e-10 0.00373939 1.41871e-08
-1.56077e-09 0.00373939 1.40994e-08
-2.25716e-09 0.00373939 1.4104e-08
-2.97953e-09 0.00373939 1.41276e-08
-2.20379e-10 0.00373939 1.41514e-08
-8.82483e-10 0.00373939 1.41183e-08
-1.517e-09 0.00373939 1.41435e-08
-2.26473e-09 0.00373939 1.41253e-08
-2.92714e-09 0.00373939 1.41889e-08
-2.54468e-10 0.00373939 1.41e-08
-8.45801e-10 0.00373939 1.41027e-08
-1.51615e-09 0.00373939 1.41287e-08
-2.2024e-09 0.00373939 1.41133e-08
-2.82681e-09 0.00373939 1.40861e-08
-5.47207e-11 0.00373939 1.40469e-08
-9.55255e-10 0.00373939 1.40861e-08
-1.57429e-09 0.00373939 1.40639e-08
-2.20716e-09 0.00373939 1.41714e-08
-2.94596e-09 0.00373939 1.41382e-08
-4.52598e-10 0.00436387 1.77533e-08
-1.41202e-09 0.00436387 1.77563e-08
-2.19226e-09 0.00436387 1.77162e-08
-2.88308e-09 0.00436387 1.77166e-08
-3.68869e-09 0.00436387 1.77509e-08
-6.24478e-10 0.00436387 1.77451e-08
-1.41381e-09 0.00436387 1.7754e-08
-2.08956e-09 0.00436387 1.77573e-08
-2.90594e-09 0.00436387 1.77443e-08
-3.63313e-09 0.00436387 1.77134e-08
-7.95606e-10 0.00436387 1.78212e-08
-1.37974e-09 0.00436387 1.77039e-08
-2.09565e-09 0.00436387 1.77175e-08
-2.85948e-09 0.00436387 1.76524e-08
-3.64647e-09 0.00436387 1.77152e-08
-6.68138e-10 0.00436386 1.77285e-08
-1.42723e-09 0.00436386 1.76974e-08
-2.10466e-09 0.00436386 1.77494e-08
-2.83225e-09 0.00436386 1.76519e-08
-3.58769e-09 0.00436387 1.77276e-08
-8.31604e-10 0.00436386 1.77692e-08
-1.39518e-09 0.00436386 1.76651e-08
-2.05718e-09 0.00436386 1.76622e-08
-2.89588e-09 0.00436386 1.77312e-08
-3.5204e-09 0.00436386 1.76092e-08
-1.37463e-09 0.00495613 2.1633e-08
-2.04021e-09 0.00495613 2.164e-08
-2.79903e-09 0.00495613 2.17329e-08
-3.61308e-09 0.00495612 2.15178e-08
-4.50611e-09 0.00495612 2.16322e-08
-1.36524e-09 0.00495613 2.16762e-08
-2.04882e-09 0.00495613 2.16386e-08
-2.8397e-09 0.00495612 2.1631e-08
-3.60458e-09 0.00495612 2.1674e-08
-4.56638e-09 0.00495612 2.1617e-08
-1.33678e-09 0.00495612 2.17422e-08
-2.12083e-09 0.00495612 2.16646e-08
-2.81285e-09 0.00495612 2.16119e-08
-3.64521e-09 0.00495612 2.15736e-08
-4.40378e-09 0.00495612 2.15661e-08
-1.39415e-09 0.00495612 2.17013e-08
-2.06915e-09 0.00495612 2.15657e-08
-2.85799e-09 0.00495612 2.15608e-08
-3.61725e-09 0.00495612 2.15343e-08
-4.46293e-09 0.00495612 2.15259e-08
-1.34662e-09 0.00495612 2.16342e-08
-2.1646e-09 0.00495612 2.16454e-08
-2.78402e-09 0.00495612 2.15888e-08
-3.61977e-09 0.00495612 2.15587e-08
-4.50465e-09 0.00495612 2.15182e-08
-2.11013e-09 0.00553224 2.58723e-08
-2.89455e-09 0.00553224 2.59461e-08
-3.71269e-09 0.00553224 2.59219e-08
-4.66484e-09 0.00553224 2.58892e-08
-5.32759e-09 0.00553223 2.58137e-08
-2.16498e-09 0.00553224 2.59116e-08
-2.92913e-09 0.00553224 2.58979e-08
-3.73887e-09 0.00553224 2.58727e-08
-4.63333e-09 0.00553223 2.58176e-08
-5.3618e-09 0.00553223 2.58189e-08
-2.22979e-09 0.00553223 2.58852e-08
-2.95612e-09 0.00553223 2.58331e-08
-3.70897e-09 0.00553223 2.57599e-08
-4.64228e-09 0.00553223 2.57911e-08
-5.34904e-09 0.00553223 2.58196e-08
-2.15925e-09 0.00553223 2.58651e-08
-3.00192e-09 0.00553223 2.58881e-08
-3.75296e-09 0.00553223 2.57858e-08
-4.613e-09 0.00553223 2.57716e-08
-5.44934e-09 0.00553223 2.5798e-08
-2.07994e-09 0.00553223 2.5822e-08
-2.96765e-09 0.00553223 2.57899e-08
-3.85346e-09 0.00553223 2.58417e-08
-4.56844e-09 0.00553223 2.57813e-08
-5.43503e-09 0.00553223 2.5724e-08
-3.05543e-09 0.00611116 3.03116e-08
-3.93685e-09 0.00611116 3.03296e-08
-4.80977e-09 0.00611116 3.02986e-08
-5.67008e-09 0.00611116 3.02858e-08
-6.60598e-09 0.00611116 3.0265e-08
-3.09208e-09 0.00611116 3.03369e-08
-3.98007e-09 0.00611116 3.02908e-08
-4.8031e-09 0.00611116 3.02891e-08
-5.69909e-09 0.00611116 3.02314e-08
-6.51298e-09 0.00611116 3.02279e-08
-3.15058e-09 0.00611116 3.02996e-08
-4.04482e-09 0.00611116 3.02888e-08
-4.81529e-09 0.00611116 3.02487e-08
-5.7196e-09 0.00611116 3.01996e-08
-6.54992e-09 0.00611115 3.03434e-08
-3.17861e-09 0.00611115 3.02642e-08
-4.04298e-09 0.00611115 3.02863e-08
-4.86809e-09 0.00611115 3.0251e-08
-5.66838e-09 0.00611115 3.03347e-08
-6.60372e-09 0.00611115 3.02813e-08
-3.3188e-09 0.00611115 3.02589e-08
-3.96347e-09 0.00611115 3.02018e-08
-4.86376e-09 0.00611115 3.03119e-08
-5.78319e-09 0.00611115 3.02392e-08
-6.66924e-09 0.00611115 3.02655e-08
-4.26716e-09 0.0067118 3.48801e-08
-5.08714e-09 0.0067118 3.49917e-08
-5.95236e-09 0.0067118 3.49143e-08
-6.92529e-09 0.0067118 3.49447e-08
-7.49699e-09 0.0067118 3.49533e-08
-4.36431e-09 0.0067118 3.49124e-08
-5.15504e-09 0.0067118 3.49275e-08
-6.02009e-09 0.0067118 3.49222e-08
-6.94006e-09 0.0067118 3.4873e-08
-7.81619e-09 0.0067118 3.49252e-08
-4.5086e-09 0.0067118 3.48907e-08
-5.18936e-09 0.0067118 3.49007e-08
-6.06775e-09 0.0067118 3.4923e-08
-6.93078e-09 0.0067118 3.49145e-08
-7.76058e-09 0.0067118 3.4812e-08
-4.33852e-09 0.0067118 3.48503e-08
-5.23443e-09 0.0067118 3.48497e-08
-6.05471e-09 0.0067118 3.48752e-08
-6.96698e-09 0.0067118 3.48309e-08
-7.85726e-09 0.0067118 3.48548e-08
-4.32363e-09 0.0067118 3.49423e-08
-5.19289e-09 0.0067118 3.48594e-08
-6.02977e-09 0.0067118 3.4858e-08
-7.06983e-09 0.00671179 3.49085e-08
-7.69898e-09 0.00671179 3.48964e-08
-5.45377e-09 0.00735007 3.9539e-08
-6.54159e-09 0.00735007 3.96851e-08
-7.37733e-09 0.00735007 3.9743e-08
-8.22694e-09 0.00735006 3.97549e-08
-9.5325e-09 0.00735006 3.98832e-08
-5.75021e-09 0.00735006 3.96337e-08
-6.53934e-09 0.00735007 3.96193e-08
-7.36416e-09 0.00735006 3.96525e-08
-8.26227e-09 0.00735006 3.97236e-08
-9.1939e-09 0.00735006 3.96817e-08
-5.68808e-09 0.00735006 3.95661e-08
-6.58442e-09 0.00735006 3.95773e-08
-7.47292e-09 0.00735006 3.96179e-08
-8.33049e-09 0.00735006 3.95442e-08
-9.09229e-09 0.00735006 3.96429e-08
-5.74363e-09 0.00735006 3.95267e-08
-6.58907e-09 0.00735006 3.95465e-08
-7.48935e-09 0.00735006 3.95416e-08
-8.32901e-09 0.00735006 3.96317e-08
-9.09289e-09 0.00735006 3.95649e-08
-5.74341e-09 0.00735006 3.94467e-08
-6.61619e-09 0.00735006 3.94391e-08
-7.39995e-09 0.00735006 3.95699e-08
-8.25526e-09 0.00735006 3.95588e-08
-9.09067e-09 0.00735006 3.9696e-08
-7.03479e-09 0.00803642 4.41801e-08
-8.02431e-09 0.00803642 4.43337e-08
-8.88562e-09 0.00803642 4.45986e-08
-9.68126e-09 0.00803642 4.43134e-08
-1.07199e-08 0.00803642 4.42689e-08
-7.10071e-09 0.00803642 4.43159e-08
-8.05324e-09 0.00803642 4.43003e-08
-8.84275e-09 0.00803642 4.44089e-08
-9.80725e-09 0.00803642 4.43718e-08
-1.07027e-08 0.00803642 4.43279e-08
-7.20137e-09 0.00803642 4.41601e-08
-8.07189e-09 0.00803642 4.42047e-08
-8.90378e-09 0.00803642 4.41928e-08
-9.79091e-09 0.00803642 4.43268e-08
-1.05444e-08 0.00803642 4.43243e-08
-7.17791e-09 0.00803642 4.41247e-08
-8.10172e-09 0.00803642 4.41816e-08
-8.91909e-09 0.00803642 4.42467e-08
-9.7867e-09 0.00803641 4.41624e-08
-1.06882e-08 0.00803641 4.42558e-08
-7.17488e-09 0.00803642 4.42165e-08
-8.15543e-09 0.00803641 4.42743e-08
-8.86911e-09 0.00803641 4.41319e-08
-9.88473e-09 0.00803641 4.42174e-08
-1.08362e-08 0.00803641 4.41444e-08
-8.84832e-09 0.00877456 4.88269e-08
-9.32063e-09 0.00877456 4.87838e-08
-1.04224e-08 0.00877456 4.87722e-08
-1.13818e-08 0.00877456 4.88373e-08
-1.18934e-08 0.00877456 4.88224e-08
-8.67876e-09 0.00877456 4.87001e-08
-9.54085e-09 0.00877456 4.87719e-08
-1.04147e-08 0.00877456 4.87793e-08
-1.12386e-08 0.00877456 4.8865e-08
-1.21862e-08 0.00877456 4.88318e-08
-8.87889e-09 0.00877456 4.86518e-08
-9.60506e-09 0.00877456 4.87526e-08
-1.0276e-08 0.00877456 4.88032e-08
-1.12048e-08 0.00877456 4.88311e-08
-1.22671e-08 0.00877456 4.88134e-08
-8.91017e-09 0.00877456 4.87905e-08
-9.61683e-09 0.00877456 4.87421e-08
-1.04475e-08 0.00877456 4.88684e-08
-1.12337e-08 0.00877456 4.8747e-08
-1.19694e-08 0.00877456 4.86566e-08
-9.17394e-09 0.00877455 4.86527e-08
-9.61401e-09 0.00877455 4.88178e-08
-1.04631e-08 0.00877455 4.886e-08
-1.13696e-08 0.00877455 4.87471e-08
-1.18834e-08 0.00877455 4.8808e-08
-1.0054e-08 0.00956159 5.29199e-08
-1.09553e-08 0.00956159 5.28278e-08
-1.17954e-08 0.00956158 5.29184e-08
-1.27109e-08 0.00956158 5.31203e-08
-1.37087e-08 0.00956158 5.30443e-08
-1.0197e-08 0.00956159 5.28786e-08
-1.0986e-08 0.00956159 5.29157e-08
-1.18027e-08 0.00956158 5.29457e-08
-1.26667e-08 0.00956158 5.29635e-08
-1.36335e-08 0.00956158 5.3049e-08
-1.04595e-08 0.00956158 5.3007e-08
-1.11032e-08 0.00956158 5.30562e-08
-1.17664e-08 0.00956158 5.30729e-08
-1.26023e-08 0.00956158 5.2991e-08
-1.34903e-08 0.00956158 5.29342e-08
-1.06607e-08 0.00956158 5.30553e-08
-1.11064e-08 0.00956158 5.31443e-08
-1.17759e-08 0.00956158 5.30311e-08
-1.26907e-08 0.00956158 5.29716e-08
-1.33268e-08 0.00956158 5.2972e-08
-1.05232e-08 0.00956158 5.3192e-08
-1.11148e-08 0.00956158 5.2962e-08
-1.19269e-08 0.00956158 5.3218e-08
-1.27219e-08 0.00956158 5.31699e-08
-1.3201e-08 0.00956158 5.31709e-08
-1.19202e-08 0.0103899 5.66027e-08
-1.21931e-08 0.0103899 5.67342e-08
-1.31911e-08 0.0103899 5.65693e-08
-1.39185e-08 0.0103899 5.66388e-08
-1.46896e-08 0.0103899 5.66986e-08
-1.18265e-08 0.0103899 5.67825e-08
-1.2461e-08 0.0103899 5.66971e-08
-1.30964e-08 0.0103899 5.68173e-08
-1.38818e-08 0.0103899 5.66604e-08
-1.49034e-08 0.0103899 5.6644e-08
-1.19242e-08 0.0103899 5.68809e-08
-1.24869e-08 0.0103899 5.68266e-08
-1.30935e-08 0.0103899 5.68149e-08
-1.38676e-08 0.0103899 5.67388e-08
-1.45323e-08 0.0103899 5.66889e-08
-1.20559e-08 0.0103899 5.67564e-08
-1.2568e-08 0.0103899 5.69165e-08
-1.3151e-08 0.0103899 5.6881e-08
-1.39065e-08 0.0103899 5.68701e-08
-1.44662e-08 0.0103899 5.68928e-08
-1.16587e-08 0.0103899 5.68683e-08
-1.25745e-08 0.0103899 5.67394e-08
-1.32619e-08 0.0103899 5.69447e-08
-1.40225e-08 0.0103899 5.69878e-08
-1.42299e-08 0.0103899 5.70459e-08
-1.32943e-08 0.0112504 6.01809e-08
-1.37695e-08 0.0112504 6.01867e-08
-1.42887e-08 0.0112504 6.0096e-08
-1.5045e-08 0.0112504 5.99755e-08
-1.55866e-08 0.0112504 5.99897e-08
-1.33114e-08 0.0112504 6.00223e-08
-1.35653e-08 0.0112504 6.00923e-08
-1.42279e-08 0.0112504 6.01112e-08
-1.49362e-08 0.0112504 5.99587e-08
-1.55354e-08 0.0112504 5.9974e-08
-1.31299e-08 0.0112504 6.02167e-08
-1.37314e-08 0.0112504 6.01153e-08
-1.42596e-08 0.0112504 6.01478e-08
-1.49616e-08 0.0112504 6.01143e-08
-1.56301e-08 0.0112504 6.00937e-08
-1.31412e-08 0.0112504 6.00332e-08
-1.3795e-08 0.0112504 6.00994e-08
-1.42672e-08 0.0112504 6.01408e-08
-1.49701e-08 0.0112504 6.0191e-08
-1.53537e-08 0.0112504 6.01271e-08
-1.32487e-08 0.0112504 6.0065e-08
-1.36957e-08 0.0112504 6.00286e-08
-1.44904e-08 0.0112504 5.99389e-08
-1.49078e-08 0.0112504 6.02362e-08
-1.57134e-08 0.0112504 6.01754e-08
-1.40023e-08 0.0121373 6.29498e-08
-1.45316e-08 0.0121373 6.3084e-08
-1.49176e-08 0.0121373 6.31416e-08
-1.59666e-08 0.0121373 6.31269e-08
-1.62885e-08 0.0121373 6.2918e-08
-1.388e-08 0.0121373 6.29612e-08
-1.45885e-08 0.0121373 6.29772e-08
-1.5065e-08 0.0121373 6.30344e-08
-1.5813e-08 0.0121373 6.29283e-08
-1.62986e-08 0.0121373 6.2989e-08
-1.41811e-08 0.0121373 6.285e-08
-1.4605e-08 0.0121373 6.28169e-08
-1.51425e-08 0.0121373 6.28275e-08
-1.56593e-08 0.0121373 6.29364e-08
-1.64296e-08 0.0121373 6.28907e-08
-1.39876e-08 0.0121373 6.27526e-08
-1.47152e-08 0.0121373 6.2815e-08
-1.51259e-08 0.0121373 6.28123e-08
-1.56131e-08 0.0121373 6.29039e-08
-1.62584e-08 0.0121373 6.28612e-08
-1.40487e-08 0.0121373 6.28629e-08
-1.47827e-08 0.0121373 6.25914e-08
-1.4975e-08 0.0121373 6.2955e-08
-1.56871e-08 0.0121373 6.26458e-08
-1.63078e-08 0.0121373 6.3031e-08
-1.49056e-08 0.013052 6.52047e-08
-1.50919e-08 0.013052 6.51391e-08
-1.55036e-08 0.013052 6.50948e-08
-1.60649e-08 0.013052 6.50141e-08
-1.64479e-08 0.013052 6.52686e-08
-1.48061e-08 0.013052 6.50146e-08
-1.51358e-08 0.013052 6.49562e-08
-1.55508e-08 0.013052 6.51841e-08
-1.60553e-08 0.013052 6.50744e-08
-1.61827e-08 0.013052 6.49441e-08
-1.47209e-08 0.013052 6.50928e-08
-1.52833e-08 0.013052 6.50023e-08
-1.54969e-08 0.013052 6.49538e-08
-1.59082e-08 0.013052 6.49869e-08
-1.62778e-08 0.013052 6.50111e-08
-1.48899e-08 0.013052 6.49705e-08
-1.54257e-08 0.013052 6.49148e-08
-1.55947e-08 0.013052 6.50116e-08
-1.58707e-08 0.013052 6.48988e-08
-1.60702e-08 0.013052 6.50214e-08
-1.50905e-08 0.013052 6.5053e-08
-1.53553e-08 0.013052 6.49361e-08
-1.56105e-08 0.013052 6.47913e-08
-1.58916e-08 0.013052 6.50512e-08
-1.6272e-08 0.013052 6.47995e-08
-1.53066e-08 0.0140064 6.65012e-08
-1.54269e-08 0.0140064 6.64054e-08
-1.56492e-08 0.0140064 6.60778e-08
-1.57864e-08 0.0140064 6.62588e-08
-1.57616e-08 0.0140064 6.64106e-08
-1.53562e-08 0.0140064 6.65737e-08
-1.54801e-08 0.0140064 6.64251e-08
-1.54845e-08 0.0140064 6.63829e-08
-1.57816e-08 0.0140064 6.64138e-08
-1.59068e-08 0.0140064 6.62229e-08
-1.5457e-08 0.0140064 6.65045e-08
-1.54853e-08 0.0140064 6.6404e-08
-1.55784e-08 0.0140064 6.64033e-08
-1.57259e-08 0.0140064 6.62805e-08
-1.57863e-08 0.0140064 6.62446e-08
-1.52966e-08 0.0140064 6.62888e-08
-1.5575e-08 0.0140064 6.64179e-08
-1.56258e-08 0.0140064 6.64924e-08
-1.57053e-08 0.0140064 6.63879e-08
-1.57219e-08 0.0140064 6.62443e-08
-1.54889e-08 0.0140064 6.6488e-08
-1.55032e-08 0.0140064 6.63408e-08
-1.5543e-08 0.0140064 6.64346e-08
-1.58317e-08 0.0140064 6.62171e-08
-1.55702e-08 0.0140064 6.60951e-08
-1.57554e-08 0.0150238 6.72635e-08
-1.53601e-08 0.0150238 6.73211e-08
-1.52966e-08 0.0150238 6.72697e-08
-1.53184e-08 0.0150238 6.73114e-08
-1.54317e-08 0.0150238 6.69335e-08
-1.54793e-08 0.0150238 6.71836e-08
-1.54067e-08 0.0150238 6.71266e-08
-1.52794e-08 0.0150238 6.70845e-08
-1.51784e-08 0.0150238 6.69059e-08
-1.46805e-08 0.0150238 6.69182e-08
-1.53646e-08 0.0150238 6.71348e-08
-1.54793e-08 0.0150238 6.72548e-08
-1.51308e-08 0.0150238 6.70012e-08
-1.51369e-08 0.0150238 6.68352e-08
-1.50912e-08 0.0150238 6.67421e-08
-1.55628e-08 0.0150238 6.7254e-08
-1.53519e-08 0.0150238 6.69021e-08
-1.52216e-08 0.0150238 6.7092e-08
-1.50632e-08 0.0150238 6.69252e-08
-1.49637e-08 0.0150238 6.68227e-08
-1.54975e-08 0.0150238 6.6787e-08
-1.50725e-08 0.0150238 6.69412e-08
-1.53693e-08 0.0150238 6.69638e-08
-1.51954e-08 0.0150238 6.69821e-08
-1.51038e-08 0.0150238 6.65593e-08
-1.51157e-08 0.0161352 6.66336e-08
-1.49727e-08 0.0161352 6.66241e-08
-1.4019e-08 0.0161352 6.68444e-08
-1.43826e-08 0.0161352 6.63822e-08
-1.37199e-08 0.0161352 6.69615e-08
-1.51943e-08 0.0161352 6.67625e-08
-1.48291e-08 0.0161352 6.6742e-08
-1.42217e-08 0.0161352 6.66515e-08
-1.41248e-08 0.0161352 6.66305e-08
-1.37611e-08 0.0161352 6.65566e-08
-1.53385e-08 0.0161352 6.6829e-08
-1.48147e-08 0.0161352 6.68989e-08
-1.44482e-08 0.0161352 6.69015e-08
-1.39848e-08 0.0161352 6.67889e-08
-1.35041e-08 0.0161352 6.63172e-08
-1.4944e-08 0.0161352 6.67557e-08
-1.48259e-08 0.0161352 6.6807e-08
-1.44682e-08 0.0161352 6.67849e-08
-1.41725e-08 0.0161352 6.64452e-08
-1.33811e-08 0.0161352 6.6675e-08
-1.48577e-08 0.0161352 6.70298e-08
-1.48327e-08 0.0161352 6.67333e-08
-1.42244e-08 0.0161352 6.66287e-08
-1.42045e-08 0.0161352 6.69346e-08
-1.37459e-08 0.0161352 6.65679e-08
-1.41479e-08 0.0173731 6.53684e-08
-1.35516e-08 0.0173731 6.50995e-08
-1.2877e-08 0.0173731 6.50212e-08
-1.20832e-08 0.0173731 6.51082e-08
-1.20784e-08 0.0173731 6.54807e-08
-1.43262e-08 0.0173731 6.52822e-08
-1.3568e-08 0.0173731 6.5297e-08
-1.32106e-08 0.0173731 6.52055e-08
-1.22402e-08 0.0173731 6.53178e-08
-1.20169e-08 0.0173731 6.53654e-08
-1.43526e-08 0.0173731 6.54592e-08
-1.39177e-08 0.0173731 6.53436e-08
-1.30404e-08 0.0173731 6.54611e-08
-1.25061e-08 0.0173731 6.51932e-08
-1.14679e-08 0.0173731 6.53934e-08
-1.40621e-08 0.0173731 6.54419e-08
-1.36988e-08 0.0173731 6.54856e-08
-1.31649e-08 0.0173731 6.53159e-08
-1.24392e-08 0.0173731 6.55157e-08
-1.1814e-08 0.0173731 6.5346e-08
-1.37426e-08 0.0173731 6.54174e-08
-1.3475e-08 0.0173731 6.52319e-08
-1.30056e-08 0.0173731 6.53397e-08
-1.27934e-08 0.0173731 6.56034e-08
-1.22541e-08 0.0173731 6.57823e-08
-1.29425e-08 0.0187611 6.28163e-08
-1.23038e-08 0.0187611 6.26039e-08
-1.12037e-08 0.0187611 6.24931e-08
-1.0027e-08 0.0187611 6.2444e-08
-9.73299e-09 0.0187611 6.24776e-08
-1.33003e-08 0.0187611 6.29408e-08
-1.23161e-08 0.0187611 6.27e-08
-1.12206e-08 0.0187611 6.29876e-08
-1.05535e-08 0.0187611 6.27691e-08