<?xml version="1.0"?>
<VTKFile type="UnstructuredGrid" version="0.1" byte_order="LittleEndian">
<UnstructuredGrid>
<Piece NumberOfPoints="1025" NumberOfCells="640">
<Points>
<DataArray type="Float32" NumberOfComponents="3" format="ascii">
0 0 0
0.025 0 0
0.05 0 0
0.075 0 0
0.1 0 0
0 0.025 0
0.025 0.025 0
0.05 0.025 0
0.075 0.025 0
0.1 0.025 0
0 0.05 0
0.025 0.05 0
0.05 0.05 0
0.075 0.05 0
0.1 0.05 0
0 0.075 0
0.025 0.075 0
0.05 0.075 0
0.075 0.075 0
0.1 0.075 0
0 0.1 0
0.025 0.1 0
0.05 0.1 0
0.075 0.1 0
0.1 0.1 0
0 0 0.025
0.025 0 0.025
0.05 0 0.025
0.075 0 0.025
0.1 0 0.025
0 0.025 0.025
0.025 0.025 0.025
0.05 0.025 0.025
0.075 0.025 0.025
0.1 0.025 0.025
0 0.05 0.025
0.025 0.05 0.025
0.05 0.05 0.025
0.075 0.05 0.025
0.1 0.05 0.025
0 0.075 0.025
0.025 0.075 0.025
0.05 0.075 0.025
0.075 0.075 0.025
0.1 0.075 0.025
0 0.1 0.025
0.025 0.1 0.025
0.05 0.1 0.025
0.075 0.1 0.025
0.1 0.1 0.025
0 0 0.05
0.025 0 0.05
0.05 0 0.05
0.075 0 0.05
0.1 0 0.05
0 0.025 0.05
0.025 0.025 0.05
0.05 0.025 0.05
0.075 0.025 0.05
0.1 0.025 0.05
0 0.05 0.05
0.025 0.05 0.05
0.05 0.05 0.05
0.075 0.05 0.05
0.1 0.05 0.05
0 0.075 0.05
0.025 0.075 0.05
0.05 0.075 0.05
0.075 0.075 0.05
0.1 0.075 0.05
0 0.1 0.05
0.025 0.1 0.05
0.05 0.1 0.05
0.075 0.1 0.05
0.1 0.1 0.05
0 0 0.075
0.025 0 0.075
0.05 0 0.075
0.075 0 0.075
0.1 0 0.075
0 0.025 0.075
0.025 0.025 0.075
0.05 0.025 0.075
0.075 0.025 0.075
0.1 0.025 0.075
0 0.05 0.075
0.025 0.05 0.075
0.05 0.05 0.075
0.075 0.05 0.075
0.1 0.05 0.075
0 0.075 0.075
0.025 0.075 0.075
0.05 0.075 0.075
0.075 0.075 0.075
0.1 0.075 0.075
0 0.1 0.075
0.025 0.1 0.075
0.05 0.1 0.075
0.075 0.1 0.075
0.1 0.1 0.075
0 0 0.1
0.025 0 0.1
0.05 0 0.1
0.075 0 0.1
0.1 0 0.1
0 0.025 0.1
0.025 0.025 0.1
0.05 0.025 0.1
0.075 0.025 0.1
0.1 0.025 0.1
0 0.05 0.1
0.025 0.05 0.1
0.05 0.05 0.1
0.075 0.05 0.1
0.1 0.05 0.1
0 0.075 0.1
0.025 0.075 0.1
0.05 0.075 0.1
0.075 0.075 0.1
0.1 0.075 0.1
0 0.1 0.1
0.025 0.1 0.1
0.05 0.1 0.1
0.075 0.1 0.1
0.1 0.1 0.1
0 0 0.125
0.025 0 0.125
0.05 0 0.125
0.075 0 0.125
0.1 0 0.125
0 0.025 0.125
0.025 0.025 0.125
0.05 0.025 0.125
0.075 0.025 0.125
0.1 0.025 0.125
0 0.05 0.125
0.025 0.05 0.125
0.05 0.05 0.125
0.075 0.05 0.125
0.1 0.05 0.125
0 0.075 0.125
0.025 0.075 0.125
0.05 0.075 0.125
0.075 0.075 0.125
0.1 0.075 0.125
0 0.1 0.125
0.025 0.1 0.125
0.05 0.1 0.125
0.075 0.1 0.125
0.1 0.1 0.125
0 0 0.15
0.025 0 0.15
0.05 0 0.15
0.075 0 0.15
0.1 0 0.15
0 0.025 0.15
0.025 0.025 0.15
0.05 0.025 0.15
0.075 0.025 0.15
0.1 0.025 0.15
0 0.05 0.15
0.025 0.05 0.15
0.05 0.05 0.15
0.075 0.05 0.15
0.1 0.05 0.15
0 0.075 0.15
0.025 0.075 0.15
0.05 0.075 0.15
0.075 0.075 0.15
0.1 0.075 0.15
0 0.1 0.15
0.025 0.1 0.15
0.05 0.1 0.15
0.075 0.1 0.15
0.1 0.1 0.15
0 0 0.175
0.025 0 0.175
0.05 0 0.175
0.075 0 0.175
0.1 0 0.175
0 0.025 0.175
0.025 0.025 0.175
0.05 0.025 0.175
0.075 0.025 0.175
0.1 0.025 0.175
0 0.05 0.175
0.025 0.05 0.175
0.05 0.05 0.175
0.075 0.05 0.175
0.1 0.05 0.175
0 0.075 0.175
0.025 0.075 0.175
0.05 0.075 0.175
0.075 0.075 0.175
0.1 0.075 0.175
0 0.1 0.175
0.025 0.1 0.175
0.05 0.1 0.175
0.075 0.1 0.175
0.1 0.1 0.175
0 0 0.2
0.025 0 0.2
0.05 0 0.2
0.075 0 0.2
0.1 0 0.2
0 0.025 0.2
0.025 0.025 0.2
0.05 0.025 0.2
0.075 0.025 0.2
0.1 0.025 0.2
0 0.05 0.2
0.025 0.05 0.2
0.05 0.05 0.2
0.075 0.05 0.2
0.1 0.05 0.2
0 0.075 0.2
0.025 0.075 0.2
0.05 0.075 0.2
0.075 0.075 0.2
0.1 0.075 0.2
0 0.1 0.2
0.025 0.1 0.2
0.05 0.1 0.2
0.075 0.1 0.2
0.1 0.1 0.2
0 0 0.225
0.025 0 0.225
0.05 0 0.225
0.075 0 0.225
0.1 0 0.225
0 0.025 0.225
0.025 0.025 0.225
0.05 0.025 0.225
0.075 0.025 0.225
0.1 0.025 0.225
0 0.05 0.225
0.025 0.05 0.225
0.05 0.05 0.225
0.075 0.05 0.225
0.1 0.05 0.225
0 0.075 0.225
0.025 0.075 0.225
0.05 0.075 0.225
0.075 0.075 0.225
0.1 0.075 0.225
0 0.1 0.225
0.025 0.1 0.225
0.05 0.1 0.225
0.075 0.1 0.225
0.1 0.1 0.225
0 0 0.25
0.025 0 0.25
0.05 0 0.25
0.075 0 0.25
0.1 0 0.25
0 0.025 0.25
0.025 0.025 0.25
0.05 0.025 0.25
0.075 0.025 0.25
0.1 0.025 0.25
0 0.05 0.25
0.025 0.05 0.25
0.05 0.05 0.25
0.075 0.05 0.25
0.1 0.05 0.25
0 0.075 0.25
0.025 0.075 0.25
0.05 0.075 0.25
0.075 0.075 0.25
0.1 0.075 0.25
0 0.1 0.25
0.025 0.1 0.25
0.05 0.1 0.25
0.075 0.1 0.25
0.1 0.1 0.25
0 0 0.275
0.025 0 0.275
0.05 0 0.275
0.075 0 0.275
0.1 0 0.275
0 0.025 0.275
0.025 0.025 0.275
0.05 0.025 0.275
0.075 0.025 0.275
0.1 0.025 0.275
0 0.05 0.275
0.025 0.05 0.275
0.05 0.05 0.275
0.075 0.05 0.275
0.1 0.05 0.275
0 0.075 0.275
0.025 0.075 0.275
0.05 0.075 0.275
0.075 0.075 0.275
0.1 0.075 0.275
0 0.1 0.275
0.025 0.1 0.275
0.05 0.1 0.275
0.075 0.1 0.275
0.1 0.1 0.275
0 0 0.3
0.025 0 0.3
0.05 0 0.3
0.075 0 0.3
0.1 0 0.3
0 0.025 0.3
0.025 0.025 0.3
0.05 0.025 0.3
0.075 0.025 0.3
0.1 0.025 0.3
0 0.05 0.3
0.025 0.05 0.3
0.05 0.05 0.3
0.075 0.05 0.3
0.1 0.05 0.3
0 0.075 0.3
0.025 0.075 0.3
0.05 0.075 0.3
0.075 0.075 0.3
0.1 0.075 0.3
0 0.1 0.3
0.025 0.1 0.3
0.05 0.1 0.3
0.075 0.1 0.3
0.1 0.1 0.3
0 0 0.325
0.025 0 0.325
0.05 0 0.325
0.075 0 0.325
0.1 0 0.325
0 0.025 0.325
0.025 0.025 0.325
0.05 0.025 0.325
0.075 0.025 0.325
0.1 0.025 0.325
0 0.05 0.325
0.025 0.05 0.325
0.05 0.05 0.325
0.075 0.05 0.325
0.1 0.05 0.325
0 0.075 0.325
0.025 0.075 0.325
0.05 0.075 0.325
0.075 0.075 0.325
0.1 0.075 0.325
0 0.1 0.325
0.025 0.1 0.325
0.05 0.1 0.325
0.075 0.1 0.325
0.1 0.1 0.325
0 0 0.35
0.025 0 0.35
0.05 0 0.35
0.075 0 0.35
0.1 0 0.35
0 0.025 0.35
0.025 0.025 0.35
0.05 0.025 0.35
0.075 0.025 0.35
0.1 0.025 0.35
0 0.05 0.35
0.025 0.05 0.35
0.05 0.05 0.35
0.075 0.05 0.35
0.1 0.05 0.35
0 0.075 0.35
0.025 0.075 0.35
0.05 0.075 0.35
0.075 0.075 0.35
0.1 0.075 0.35
0 0.1 0.35
0.025 0.1 0.35
0.05 0.1 0.35
0.075 0.1 0.35
0.1 0.1 0.35
0 0 0.375
0.025 0 0.375
0.05 0 0.375
0.075 0 0.375
0.1 0 0.375
0 0.025 0.375
0.025 0.025 0.375
0.05 0.025 0.375
0.075 0.025 0.375
0.1 0.025 0.375
0 0.05 0.375
0.025 0.05 0.375
0.05 0.05 0.375
0.075 0.05 0.375
0.1 0.05 0.375
0 0.075 0.375
0.025 0.075 0.375
0.05 0.075 0.375
0.075 0.075 0.375
0.1 0.075 0.375
0 0.1 0.375
0.025 0.1 0.375
0.05 0.1 0.375
0.075 0.1 0.375
0.1 0.1 0.375
0 0 0.4
0.025 0 0.4
0.05 0 0.4
0.075 0 0.4
0.1 0 0.4
0 0.025 0.4
0.025 0.025 0.4
0.05 0.025 0.4
0.075 0.025 0.4
0.1 0.025 0.4
0 0.05 0.4
0.025 0.05 0.4
0.05 0.05 0.4
0.075 0.05 0.4
0.1 0.05 0.4
0 0.075 0.4
0.025 0.075 0.4
0.05 0.075 0.4
0.075 0.075 0.4
0.1 0.075 0.4
0 0.1 0.4
0.025 0.1 0.4
0.05 0.1 0.4
0.075 0.1 0.4
0.1 0.1 0.4
0 0 0.425
0.025 0 0.425
0.05 0 0.425
0.075 0 0.425
0.1 0 0.425
0 0.025 0.425
0.025 0.025 0.425
0.05 0.025 0.425
0.075 0.025 0.425
0.1 0.025 0.425
0 0.05 0.425
0.025 0.05 0.425
0.05 0.05 0.425
0.075 0.05 0.425
0.1 0.05 0.425
0 0.075 0.425
0.025 0.075 0.425
0.05 0.075 0.425
0.075 0.075 0.425
0.1 0.075 0.425
0 0.1 0.425
0.025 0.1 0.425
0.05 0.1 0.425
0.075 0.1 0.425
0.1 0.1 0.425
0 0 0.45
0.025 0 0.45
0.05 0 0.45
0.075 0 0.45
0.1 0 0.45
0 0.025 0.45
0.025 0.025 0.45
0.05 0.025 0.45
0.075 0.025 0.45
0.1 0.025 0.45
0 0.05 0.45
0.025 0.05 0.45
0.05 0.05 0.45
0.075 0.05 0.45
0.1 0.05 0.45
0 0.075 0.45
0.025 0.075 0.45
0.05 0.075 0.45
0.075 0.075 0.45
0.1 0.075 0.45
0 0.1 0.45
0.025 0.1 0.45
0.05 0.1 0.45
0.075 0.1 0.45
0.1 0.1 0.45
0 0 0.475
0.025 0 0.475
0.05 0 0.475
0.075 0 0.475
0.1 0 0.475
0 0.025 0.475
0.025 0.025 0.475
0.05 0.025 0.475
0.075 0.025 0.475
0.1 0.025 0.475
0 0.05 0.475
0.025 0.05 0.475
0.05 0.05 0.475
0.075 0.05 0.475
0.1 0.05 0.475
0 0.075 0.475
0.025 0.075 0.475
0.05 0.075 0.475
0.075 0.075 0.475
0.1 0.075 0.475
0 0.1 0.475
0.025 0.1 0.475
0.05 0.1 0.475
0.075 0.1 0.475
0.1 0.1 0.475
0 0 0.5
0.025 0 0.5
0.05 0 0.5
0.075 0 0.5
0.1 0 0.5
0 0.025 0.5
0.025 0.025 0.5
0.05 0.025 0.5
0.075 0.025 0.5
0.1 0.025 0.5
0 0.05 0.5
0.025 0.05 0.5
0.05 0.05 0.5
0.075 0.05 0.5
0.1 0.05 0.5
0 0.075 0.5
0.025 0.075 0.5
0.05 0.075 0.5
0.075 0.075 0.5
0.1 0.075 0.5
0 0.1 0.5
0.025 0.1 0.5
0.05 0.1 0.5
0.075 0.1 0.5
0.1 0.1 0.5
0 0 0.525
0.025 0 0.525
0.05 0 0.525
0.075 0 0.525
0.1 0 0.525
0 0.025 0.525
0.025 0.025 0.525
0.05 0.025 0.525
0.075 0.025 0.525
0.1 0.025 0.525
0 0.05 0.525
0.025 0.05 0.525
0.05 0.05 0.525
0.075 0.05 0.525
0.1 0.05 0.525
0 0.075 0.525
0.025 0.075 0.525
0.05 0.075 0.525
0.075 0.075 0.525
0.1 0.075 0.525
0 0.1 0.525
0.025 0.1 0.525
0.05 0.1 0.525
0.075 0.1 0.525
0.1 0.1 0.525
0 0 0.55
0.025 0 0.55
0.05 0 0.55
0.075 0 0.55
0.1 0 0.55
0 0.025 0.55
0.025 0.025 0.55
0.05 0.025 0.55
0.075 0.025 0.55
0.1 0.025 0.55
0 0.05 0.55
0.025 0.05 0.55
0.05 0.05 0.55
0.075 0.05 0.55
0.1 0.05 0.55
0 0.075 0.55
0.025 0.075 0.55
0.05 0.075 0.55
0.075 0.075 0.55
0.1 0.075 0.55
0 0.1 0.55
0.025 0.1 0.55
0.05 0.1 0.55
0.075 0.1 0.55
0.1 0.1 0.55
0 0 0.575
0.025 0 0.575
0.05 0 0.575
0.075 0 0.575
0.1 0 0.575
0 0.025 0.575
0.025 0.025 0.575
0.05 0.025 0.575
0.075 0.025 0.575
0.1 0.025 0.575
0 0.05 0.575
0.025 0.05 0.575
0.05 0.05 0.575
0.075 0.05 0.575
0.1 0.05 0.575
0 0.075 0.575
0.025 0.075 0.575
0.05 0.075 0.575
0.075 0.075 0.575
0.1 0.075 0.575
0 0.1 0.575
0.025 0.1 0.575
0.05 0.1 0.575
0.075 0.1 0.575
0.1 0.1 0.575
0 0 0.6
0.025 0 0.6
0.05 0 0.6
0.075 0 0.6
0.1 0 0.6
0 0.025 0.6
0.025 0.025 0.6
0.05 0.025 0.6
0.075 0.025 0.6
0.1 0.025 0.6
0 0.05 0.6
0.025 0.05 0.6
0.05 0.05 0.6
0.075 0.05 0.6
0.1 0.05 0.6
0 0.075 0.6
0.025 0.075 0.6
0.05 0.075 0.6
0.075 0.075 0.6
0.1 0.075 0.6
0 0.1 0.6
0.025 0.1 0.6
0.05 0.1 0.6
0.075 0.1 0.6
0.1 0.1 0.6
0 0 0.625
0.025 0 0.625
0.05 0 0.625
0.075 0 0.625
0.1 0 0.625
0 0.025 0.625
0.025 0.025 0.625
0.05 0.025 0.625
0.075 0.025 0.625
0.1 0.025 0.625
0 0.05 0.625
0.025 0.05 0.625
0.05 0.05 0.625
0.075 0.05 0.625
0.1 0.05 0.625
0 0.075 0.625
0.025 0.075 0.625
0.05 0.075 0.625
0.075 0.075 0.625
0.1 0.075 0.625
0 0.1 0.625
0.025 0.1 0.625
0.05 0.1 0.625
0.075 0.1 0.625
0.1 0.1 0.625
0 0 0.65
0.025 0 0.65
0.05 0 0.65
0.075 0 0.65
0.1 0 0.65
0 0.025 0.65
0.025 0.025 0.65
0.05 0.025 0.65
0.075 0.025 0.65
0.1 0.025 0.65
0 0.05 0.65
0.025 0.05 0.65
0.05 0.05 0.65
0.075 0.05 0.65
0.1 0.05 0.65
0 0.075 0.65
0.025 0.075 0.65
0.05 0.075 0.65
0.075 0.075 0.65
0.1 0.075 0.65
0 0.1 0.65
0.025 0.1 0.65
0.05 0.1 0.65
0.075 0.1 0.65
0.1 0.1 0.65
0 0 0.675
0.025 0 0.675
0.05 0 0.675
0.075 0 0.675
0.1 0 0.675
[...]
<PointData Vectors="Displacement">
<DataArray type="Float32" Name="Displacement" NumberOfComponents="3" format="ascii">
0 0 0
0 0 0
0 0 0
0 0 0
0 0 0
0 0 0
0 0 0
0 0 0
0 0 0
0 0 0
0 0 0
0 0 0
0 0 0
0 0 0
0 0 0
0 0 0
0 0 0
0 0 0
0 0 0
0 0 0
0 0 0
0 0 0
0 0 0
0 0 0
0 0 0
5.41945e-10 0.00126961 -1.09491e-09
7.3353e-10 0.00126961 -1.12681e-09
8.73423e-10 0.00126961 -1.11881e-09
1.00432e-09 0.00126961 -1.09966e-09
1.22503e-09 0.00126961 -1.09894e-09
5.14314e-10 0.00126962 -1.1076e-09
7.46391e-10 0.00126961 -1.11766e-09
8.80336e-10 0.00126961 -1.1207e-09
1.00369e-09 0.00126961 -1.1078e-09
1.24787e-09 0.00126961 -1.11191e-09
5.31258e-10 0.00126961 -1.11486e-09
7.45975e-10 0.00126961 -1.11752e-09
8.72952e-10 0.00126961 -1.12908e-09
1.01162e-09 0.00126961 -1.11145e-09
1.23741e-09 0.00126961 -1.11755e-09
5.59919e-10 0.00126962 -1.11103e-09
7.41829e-10 0.00126961 -1.11824e-09
8.74892e-10 0.00126961 -1.09193e-09
1.00057e-09 0.00126961 -1.09547e-09
1.19574e-09 0.00126961 -1.09936e-09
5.66163e-10 0.00126962 -1.09854e-09
7.47645e-10 0.00126962 -1.09551e-09
8.70843e-10 0.00126962 -1.08523e-09
9.936e-10 0.00126962 -1.08541e-09
1.19057e-09 0.00126962 -1.0766e-09
1.32446e-09 0.00253912 -2.27085e-09
1.53933e-09 0.00253912 -2.21677e-09
1.76832e-09 0.00253912 -2.27607e-09
1.97862e-09 0.00253912 -2.26442e-09
2.1443e-09 0.00253912 -2.32243e-09
1.28881e-09 0.00253912 -2.25194e-09
1.55078e-09 0.00253912 -2.24881e-09
1.75153e-09 0.00253912 -2.24525e-09
1.96406e-09 0.00253912 -2.26933e-09
2.18107e-09 0.00253912 -2.25183e-09
1.3099e-09 0.00253912 -2.2675e-09
1.54599e-09 0.00253912 -2.25571e-09
1.74386e-09 0.00253912 -2.29594e-09
1.93702e-09 0.00253912 -2.25422e-09
2.22028e-09 0.00253912 -2.2335e-09
1.35189e-09 0.00253912 -2.25936e-09
1.53788e-09 0.00253912 -2.27015e-09
1.74975e-09 0.00253912 -2.25178e-09
1.90921e-09 0.00253912 -2.23915e-09
2.20019e-09 0.00253912 -2.25764e-09
1.37422e-09 0.00253912 -2.27605e-09
1.57361e-09 0.00253912 -2.29141e-09
1.71701e-09 0.00253912 -2.21222e-09
1.92326e-09 0.00253912 -2.23879e-09
2.13267e-09 0.00253912 -2.24275e-09
2.15282e-09 0.00380839 -3.33055e-09
2.4218e-09 0.00380839 -3.35081e-09
2.63356e-09 0.00380839 -3.30921e-09
2.8014e-09 0.00380839 -3.36656e-09
3.15194e-09 0.00380839 -3.42585e-09
2.13971e-09 0.00380839 -3.34945e-09
2.39922e-09 0.00380839 -3.36585e-09
2.63701e-09 0.00380839 -3.36313e-09
2.83785e-09 0.00380839 -3.34481e-09
3.13578e-09 0.00380839 -3.36478e-09
2.15369e-09 0.00380839 -3.36084e-09
2.39529e-09 0.00380839 -3.36664e-09
2.61343e-09 0.00380839 -3.37951e-09
2.86253e-09 0.00380839 -3.33717e-09
3.11668e-09 0.00380839 -3.35662e-09
2.24436e-09 0.00380839 -3.41168e-09
2.39853e-09 0.00380839 -3.37676e-09
2.60478e-09 0.00380839 -3.3704e-09
2.81688e-09 0.00380839 -3.36859e-09
3.06265e-09 0.00380839 -3.32291e-09
2.16286e-09 0.00380839 -3.42342e-09
2.41075e-09 0.00380839 -3.38769e-09
2.62448e-09 0.00380839 -3.41059e-09
2.80931e-09 0.00380839 -3.33689e-09
3.00762e-09 0.00380839 -3.34679e-09
3.14945e-09 0.00507733 -4.46215e-09
3.30268e-09 0.00507733 -4.40488e-09
3.50975e-09 0.00507733 -4.41145e-09
3.69096e-09 0.00507733 -4.42765e-09
3.98677e-09 0.00507733 -4.43121e-09
2.97157e-09 0.00507733 -4.43361e-09
3.28789e-09 0.00507733 -4.42161e-09
3.51041e-09 0.00507733 -4.44181e-09
3.69185e-09 0.00507733 -4.41196e-09
4.01975e-09 0.00507733 -4.41668e-09
3.03872e-09 0.00507733 -4.45391e-09
3.24598e-09 0.00507733 -4.43984e-09
3.52639e-09 0.00507733 -4.43337e-09
3.7374e-09 0.00507733 -4.39226e-09
3.97705e-09 0.00507733 -4.43015e-09
3.10031e-09 0.00507733 -4.46512e-09
3.26399e-09 0.00507733 -4.49934e-09
3.47698e-09 0.00507733 -4.45946e-09
3.70242e-09 0.00507733 -4.40109e-09
3.99496e-09 0.00507733 -4.40326e-09
3.15618e-09 0.00507733 -4.45633e-09
3.28444e-09 0.00507733 -4.50186e-09
3.48804e-09 0.00507733 -4.48805e-09
3.69622e-09 0.00507733 -4.41245e-09
3.95208e-09 0.00507733 -4.41799e-09
4.03351e-09 0.00634581 -5.35582e-09
4.20842e-09 0.00634581 -5.48153e-09
4.36935e-09 0.00634581 -5.55398e-09
4.56715e-09 0.00634581 -5.48015e-09
4.92091e-09 0.00634581 -5.42694e-09
3.99534e-09 0.00634581 -5.46508e-09
4.20905e-09 0.00634581 -5.41999e-09
4.36523e-09 0.00634581 -5.43865e-09
4.59245e-09 0.00634581 -5.44937e-09
4.82083e-09 0.00634581 -5.46418e-09
3.95082e-09 0.00634581 -5.47685e-09
4.15888e-09 0.00634581 -5.46385e-09
4.42753e-09 0.00634581 -5.4191e-09
4.55629e-09 0.00634581 -5.40484e-09
4.86186e-09 0.00634581 -5.35269e-09
4.00099e-09 0.00634581 -5.48474e-09
4.11456e-09 0.00634581 -5.46313e-09
4.42346e-09 0.00634581 -5.39398e-09
4.59064e-09 0.00634581 -5.3578e-09
4.89006e-09 0.00634581 -5.35009e-09
3.92136e-09 0.00634581 -5.3858e-09
4.08441e-09 0.00634581 -5.50286e-09
4.40692e-09 0.00634581 -5.38636e-09
4.59863e-09 0.00634581 -5.37828e-09
4.78992e-09 0.00634581 -5.28122e-09
4.99415e-09 0.00761373 -6.39e-09
4.9949e-09 0.00761373 -6.38347e-09
5.25672e-09 0.00761373 -6.52857e-09
5.40255e-09 0.00761373 -6.53035e-09
5.8076e-09 0.00761373 -6.4055e-09
4.83203e-09 0.00761373 -6.40848e-09
5.04767e-09 0.00761373 -6.41974e-09
5.29355e-09 0.00761373 -6.43589e-09
5.47858e-09 0.00761373 -6.38574e-09
5.75192e-09 0.00761373 -6.37439e-09
4.70701e-09 0.00761373 -6.33631e-09
5.08138e-09 0.00761373 -6.36922e-09
5.32012e-09 0.00761373 -6.35942e-09
5.51423e-09 0.00761373 -6.44863e-09
5.62337e-09 0.00761373 -6.37933e-09
4.77513e-09 0.00761373 -6.27588e-09
5.06677e-09 0.00761373 -6.34328e-09
5.32685e-09 0.00761373 -6.33793e-09
5.5162e-09 0.00761373 -6.37395e-09
5.64007e-09 0.00761373 -6.31388e-09
4.7051e-09 0.00761373 -6.40147e-09
5.04639e-09 0.00761373 -6.23583e-09
5.35305e-09 0.00761373 -6.3058e-09
5.44524e-09 0.00761373 -6.22497e-09
5.68015e-09 0.00761373 -6.38461e-09
5.58938e-09 0.00888098 -7.36534e-09
5.93831e-09 0.00888098 -7.34238e-09
6.12421e-09 0.00888098 -7.29106e-09
6.41022e-09 0.00888098 -7.45418e-09
6.55172e-09 0.00888098 -7.41378e-09
5.63435e-09 0.00888098 -7.30757e-09
5.91727e-09 0.00888098 -7.35046e-09
6.15325e-09 0.00888098 -7.27942e-09
6.3985e-09 0.00888098 -7.31421e-09
6.51509e-09 0.00888098 -7.29586e-09
5.72656e-09 0.00888098 -7.09534e-09
5.91111e-09 0.00888098 -7.22299e-09
6.17565e-09 0.00888098 -7.2156e-09
6.35688e-09 0.00888098 -7.2369e-09
6.55657e-09 0.00888098 -7.30753e-09
5.69479e-09 0.00888098 -7.1236e-09
5.94193e-09 0.00888098 -7.14359e-09
6.12964e-09 0.00888098 -7.25407e-09
6.35262e-09 0.00888098 -7.24402e-09
6.52021e-09 0.00888098 -7.31053e-09
5.74734e-09 0.00888098 -7.04698e-09
5.94174e-09 0.00888098 -7.23312e-09
6.12956e-09 0.00888098 -7.20849e-09
6.36469e-09 0.00888098 -7.30975e-09
6.47414e-09 0.00888098 -7.3115e-09
6.59337e-09 0.0101475 -8.22819e-09
6.68845e-09 0.0101475 -8.13932e-09
7.01046e-09 0.0101475 -8.16401e-09
7.1912e-09 0.0101475 -8.13351e-09
7.55918e-09 0.0101475 -8.21988e-09
6.45129e-09 0.0101475 -8.07349e-09
6.80638e-09 0.0101475 -8.08892e-09
7.03271e-09 0.0101475 -8.1558e-09
7.14999e-09 0.0101475 -8.15231e-09
7.59066e-09 0.0101475 -8.17129e-09
6.51613e-09 0.0101475 -8.05001e-09
6.75565e-09 0.0101475 -8.01562e-09
7.08511e-09 0.0101475 -8.10436e-09
7.04576e-09 0.0101475 -8.12428e-09
7.55561e-09 0.0101475 -8.11588e-09
6.70717e-09 0.0101475 -7.94004e-09
6.73814e-09 0.0101475 -8.02727e-09
6.93615e-09 0.0101475 -8.09086e-09
7.10447e-09 0.0101475 -8.07765e-09
7.36703e-09 0.0101475 -8.08405e-09
6.96949e-09 0.0101475 -7.97226e-09
6.61396e-09 0.0101475 -7.93441e-09
6.8734e-09 0.0101475 -8.12218e-09
7.07085e-09 0.0101475 -8.14884e-09
7.47053e-09 0.0101475 -8.15035e-09
7.33227e-09 0.0114131 -9.00488e-09
7.64761e-09 0.0114131 -9.19655e-09
7.84678e-09 0.0114131 -9.05481e-09
7.83081e-09 0.0114131 -9.08992e-09
8.15198e-09 0.0114131 -9.11701e-09
7.42654e-09 0.0114131 -8.96967e-09
7.55736e-09 0.0114131 -8.95285e-09
7.71828e-09 0.0114131 -9.04304e-09
7.90765e-09 0.0114131 -9.09808e-09
8.11238e-09 0.0114131 -9.08484e-09
7.52728e-09 0.0114131 -9.00922e-09
7.4974e-09 0.0114131 -8.90496e-09
7.75837e-09 0.0114131 -8.98603e-09
7.86462e-09 0.0114131 -9.03976e-09
8.21247e-09 0.0114131 -8.8896e-09
7.3685e-09 0.0114131 -9.04516e-09
7.56653e-09 0.0114131 -8.86801e-09
7.68235e-09 0.0114131 -8.87423e-09
7.97303e-09 0.0114131 -8.8167e-09
8.02799e-09 0.0114131 -8.88981e-09
7.69403e-09 0.0114131 -8.91168e-09
7.63016e-09 0.0114131 -8.94708e-09
7.64369e-09 0.0114131 -8.81746e-09
7.97025e-09 0.0114131 -8.87276e-09
8.07912e-09 0.0114131 -8.90814e-09
8.2069e-09 0.0126777 -9.78438e-09
8.23144e-09 0.0126777 -9.87145e-09
8.48115e-09 0.0126777 -1.00558e-08
8.62707e-09 0.0126777 -9.89221e-09
8.79031e-09 0.0126777 -9.86808e-09
8.07772e-09 0.0126777 -9.88659e-09
8.28512e-09 0.0126777 -9.88775e-09
8.47058e-09 0.0126777 -9.94783e-09
8.59804e-09 0.0126777 -9.9397e-09
9.05014e-09 0.0126777 -9.92103e-09
8.09883e-09 0.0126777 -9.90769e-09
8.28977e-09 0.0126777 -9.83398e-09
8.33441e-09 0.0126777 -9.74532e-09
8.61434e-09 0.0126777 -9.79468e-09
8.91011e-09 0.0126777 -9.88606e-09
8.16105e-09 0.0126777 -9.90226e-09
8.3149e-09 0.0126777 -9.94474e-09
8.46356e-09 0.0126777 -9.71626e-09
8.5435e-09 0.0126777 -9.84164e-09
9.02578e-09 0.0126777 -9.81855e-09
8.43819e-09 0.0126777 -9.73635e-09
8.27307e-09 0.0126777 -9.876e-09
8.54602e-09 0.0126777 -9.77744e-09
8.39009e-09 0.0126777 -9.67765e-09
8.74323e-09 0.0126777 -9.77246e-09
8.85102e-09 0.0139413 -1.06112e-08
8.92606e-09 0.0139413 -1.0524e-08
9.25516e-09 0.0139413 -1.05181e-08
9.30197e-09 0.0139413 -1.07042e-08
9.44176e-09 0.0139413 -1.03754e-08
8.73199e-09 0.0139413 -1.06826e-08
8.92939e-09 0.0139413 -1.06149e-08
9.12114e-09 0.0139413 -1.06868e-08
9.38293e-09 0.0139413 -1.05554e-08
9.42188e-09 0.0139413 -1.05673e-08
8.724e-09 0.0139413 -1.05996e-08
8.91987e-09 0.0139413 -1.06533e-08
9.08083e-09 0.0139413 -1.06686e-08
9.17391e-09 0.0139413 -1.05563e-08
9.70112e-09 0.0139413 -1.04594e-08
8.74665e-09 0.0139413 -1.06211e-08
8.96572e-09 0.0139413 -1.07023e-08
9.04594e-09 0.0139413 -1.05953e-08
9.22757e-09 0.0139413 -1.05485e-08
9.38171e-09 0.0139413 -1.04586e-08
8.6358e-09 0.0139413 -1.0496e-08
9.065e-09 0.0139413 -1.06622e-08
9.09085e-09 0.0139413 -1.05492e-08
9.38102e-09 0.0139413 -1.05712e-08
9.66972e-09 0.0139413 -1.05071e-08
9.43116e-09 0.0152038 -1.1089e-08
9.66506e-09 0.0152038 -1.11311e-08
9.62004e-09 0.0152038 -1.08525e-08
9.92146e-09 0.0152038 -1.13846e-08
1.00115e-08 0.0152038 -1.13095e-08
9.33341e-09 0.0152038 -1.10579e-08
9.47605e-09 0.0152038 -1.11064e-08
9.65776e-09 0.0152038 -1.11708e-08
9.81064e-09 0.0152038 -1.12514e-08
1.00691e-08 0.0152038 -1.12827e-08
9.42852e-09 0.0152038 -1.11253e-08
9.51732e-09 0.0152038 -1.12487e-08
9.78873e-09 0.0152038 -1.13088e-08
9.79767e-09 0.0152038 -1.11434e-08
9.76672e-09 0.0152038 -1.11653e-08
9.43368e-09 0.0152038 -1.1036e-08
9.48151e-09 0.0152038 -1.12407e-08
9.75177e-09 0.0152038 -1.10983e-08
9.69852e-09 0.0152038 -1.12191e-08
9.96337e-09 0.0152038 -1.11234e-08
9.69561e-09 0.0152038 -1.116e-08
9.49305e-09 0.0152038 -1.08203e-08
9.72208e-09 0.0152038 -1.12736e-08
9.75683e-09 0.0152038 -1.09848e-08
9.83766e-09 0.0152038 -1.12932e-08
1.01012e-08 0.0164651 -1.16638e-08
1.02487e-08 0.0164651 -1.17481e-08
1.00302e-08 0.0164651 -1.18218e-08
1.00766e-08 0.0164651 -1.21046e-08
1.09094e-08 0.0164651 -1.18274e-08
1.01767e-08 0.0164651 -1.1735e-08
1.01228e-08 0.0164651 -1.17369e-08
1.01805e-08 0.0164651 -1.18241e-08
1.03482e-08 0.0164651 -1.18145e-08
1.05306e-08 0.0164651 -1.18507e-08
9.86598e-09 0.0164651 -1.17337e-08
1.00599e-08 0.0164651 -1.16593e-08
1.0316e-08 0.0164651 -1.17335e-08
1.03935e-08 0.0164651 -1.17252e-08
1.00598e-08 0.0164651 -1.17516e-08
9.99083e-09 0.0164651 -1.16114e-08
1.01341e-08 0.0164651 -1.16635e-08
1.03265e-08 0.0164651 -1.16466e-08
1.02935e-08 0.0164651 -1.17199e-08
1.04129e-08 0.0164651 -1.16766e-08
9.94163e-09 0.0164651 -1.15526e-08
1.01746e-08 0.0164651 -1.16857e-08
1.01461e-08 0.0164651 -1.15333e-08
1.02923e-08 0.0164651 -1.13037e-08
1.05197e-08 0.0164651 -1.16856e-08
1.06638e-08 0.017725 -1.22919e-08
1.08191e-08 0.017725 -1.23055e-08
1.04529e-08 0.017725 -1.25814e-08
1.06006e-08 0.017725 -1.24074e-08
1.0685e-08 0.017725 -1.21652e-08
1.09412e-08 0.017725 -1.21304e-08
1.06276e-08 0.017725 -1.24033e-08
1.05972e-08 0.017725 -1.23904e-08
1.06353e-08 0.017725 -1.24995e-08
1.05944e-08 0.017725 -1.21763e-08
1.05027e-08 0.017725 -1.21618e-08
1.0677e-08 0.017725 -1.20807e-08
1.08676e-08 0.017725 -1.21383e-08
1.06727e-08 0.017725 -1.2359e-08
1.05871e-08 0.017725 -1.2358e-08
1.02897e-08 0.017725 -1.20887e-08
1.07151e-08 0.017725 -1.20254e-08
1.09106e-08 0.017725 -1.20072e-08
1.0689e-08 0.017725 -1.22898e-08
1.05835e-08 0.017725 -1.21012e-08
1.04283e-08 0.017725 -1.1739e-08
1.06691e-08 0.017725 -1.22334e-08
1.08789e-08 0.017725 -1.19133e-08
1.07018e-08 0.017725 -1.1723e-08
1.07988e-08 0.017725 -1.18512e-08
1.09619e-08 0.0189837 -1.26486e-08
1.09867e-08 0.0189837 -1.26679e-08
1.09152e-08 0.0189837 -1.30481e-08
1.11709e-08 0.0189837 -1.27591e-08
1.09501e-08 0.0189837 -1.27183e-08
1.09825e-08 0.0189837 -1.27355e-08
1.10795e-08 0.0189837 -1.2622e-08
1.10768e-08 0.0189837 -1.28098e-08
1.09791e-08 0.0189837 -1.28364e-08
1.08112e-08 0.0189837 -1.27593e-08
1.11199e-08 0.0189837 -1.25171e-08
1.12101e-08 0.0189837 -1.25987e-08
1.11159e-08 0.0189837 -1.26065e-08
1.09728e-08 0.0189837 -1.27731e-08
1.0874e-08 0.0189837 -1.30303e-08
1.13169e-08 0.0189837 -1.25411e-08
1.11387e-08 0.0189837 -1.23784e-08
1.11425e-08 0.0189837 -1.24891e-08
1.09755e-08 0.0189837 -1.27687e-08
1.10227e-08 0.0189837 -1.27071e-08
1.15132e-08 0.0189837 -1.25971e-08
1.10921e-08 0.0189837 -1.25651e-08
1.11853e-08 0.0189837 -1.24391e-08
1.08817e-08 0.0189837 -1.25469e-08
1.11742e-08 0.0189837 -1.23554e-08
1.06286e-08 0.0202409 -1.31332e-08
1.13168e-08 0.0202409 -1.28531e-08
1.12254e-08 0.0202409 -1.27404e-08
1.12094e-08 0.0202409 -1.33038e-08
1.15461e-08 0.0202409 -1.28894e-08
1.12976e-08 0.0202409 -1.29426e-08
1.13956e-08 0.0202409 -1.30077e-08
1.14285e-08 0.0202409 -1.30898e-08
1.13927e-08 0.0202409 -1.31534e-08
1.11776e-08 0.0202409 -1.32077e-08
1.16333e-08 0.0202409 -1.29064e-08
1.15328e-08 0.0202409 -1.29539e-08
1.14736e-08 0.0202409 -1.29751e-08
1.10335e-08 0.0202409 -1.31948e-08
1.12077e-08 0.0202409 -1.31183e-08
1.20077e-08 0.0202409 -1.31024e-08
1.15139e-08 0.0202409 -1.31041e-08
1.13712e-08 0.0202409 -1.28614e-08
1.10739e-08 0.0202409 -1.29303e-08
1.17059e-08 0.0202409 -1.32033e-08
1.18531e-08 0.0202409 -1.31072e-08
1.1928e-08 0.0202409 -1.2969e-08
1.10284e-08 0.0202409 -1.3166e-08
1.12118e-08 0.0202409 -1.27739e-08
1.12066e-08 0.0202409 -1.2962e-08
1.19691e-08 0.0214966 -1.29892e-08
1.14894e-08 0.0214966 -1.29671e-08
1.14692e-08 0.0214966 -1.29149e-08
1.13843e-08 0.0214966 -1.32803e-08
1.1594e-08 0.0214966 -1.30148e-08
1.15435e-08 0.0214966 -1.31817e-08
1.15111e-08 0.0214966 -1.3204e-08
1.15538e-08 0.0214966 -1.31736e-08
1.13417e-08 0.0214966 -1.32956e-08
1.16705e-08 0.0214966 -1.32975e-08
1.18236e-08 0.0214966 -1.32289e-08
1.16206e-08 0.0214966 -1.33415e-08
1.15148e-08 0.0214966 -1.34237e-08
1.14074e-08 0.0214966 -1.32427e-08
1.11703e-08 0.0214966 -1.32009e-08
1.21071e-08 0.0214966 -1.34744e-08
1.17985e-08 0.0214966 -1.35293e-08
1.16023e-08 0.0214966 -1.35041e-08
1.14041e-08 0.0214966 -1.34496e-08
1.11185e-08 0.0214966 -1.32177e-08
1.22209e-08 0.0214966 -1.34417e-08
1.18484e-08 0.0214966 -1.35695e-08
1.16893e-08 0.0214966 -1.34633e-08
1.14554e-08 0.0214966 -1.34617e-08
1.09009e-08 0.0214966 -1.35182e-08
1.11653e-08 0.0227509 -1.30969e-08
1.16204e-08 0.0227509 -1.3149e-08
1.16329e-08 0.0227509 -1.327e-08
1.1353e-08 0.0227509 -1.31042e-08
1.12507e-08 0.0227509 -1.35731e-08
1.19029e-08 0.0227509 -1.32563e-08
1.14086e-08 0.0227509 -1.35013e-08
1.16901e-08 0.0227509 -1.31747e-08
1.14901e-08 0.0227509 -1.33196e-08
1.19789e-08 0.0227509 -1.35056e-08
1.16266e-08 0.0227509 -1.33729e-08
1.15248e-08 0.0227509 -1.36049e-08
1.1586e-08 0.0227509 -1.37383e-08
1.16124e-08 0.0227509 -1.35372e-08
1.18063e-08 0.0227509 -1.34033e-08
1.19819e-08 0.0227509 -1.35015e-08
1.1738e-08 0.0227509 -1.36345e-08
1.15195e-08 0.0227509 -1.36413e-08
1.1715e-08 0.0227509 -1.38142e-08
1.17845e-08 0.0227509 -1.34518e-08
1.20119e-08 0.0227509 -1.33676e-08
1.1725e-08 0.0227509 -1.38711e-08
1.18912e-08 0.0227509 -1.38519e-08
1.1409e-08 0.0227509 -1.38896e-08
1.15249e-08 0.0227509 -1.37199e-08
1.1491e-08 0.0240036 -1.32836e-08
1.15874e-08 0.0240036 -1.31122e-08
1.15561e-08 0.0240036 -1.34374e-08
1.14137e-08 0.0240036 -1.3663e-08
1.15803e-08 0.0240036 -1.36077e-08
1.14452e-08 0.0240036 -1.31976e-08
1.15715e-08 0.0240036 -1.35182e-08
1.17495e-08 0.0240036 -1.33873e-08
1.15725e-08 0.0240036 -1.343e-08
1.17619e-08 0.0240036 -1.36701e-08
1.17926e-08 0.0240036 -1.34945e-08
1.15712e-08 0.0240036 -1.34649e-08
1.15751e-08 0.0240036 -1.34288e-08
1.17831e-08 0.0240036 -1.37651e-08
1.21119e-08 0.0240036 -1.36314e-08
1.19139e-08 0.0240036 -1.3455e-08
1.1481e-08 0.0240036 -1.35156e-08
1.15415e-08 0.0240036 -1.34545e-08
1.15525e-08 0.0240036 -1.36087e-08
1.22493e-08 0.0240036 -1.3696e-08
1.15463e-08 0.0240036 -1.32359e-08
1.1569e-08 0.0240036 -1.36038e-08
1.16741e-08 0.0240036 -1.36432e-08
1.16659e-08 0.0240036 -1.37278e-08
1.1624e-08 0.0240036 -1.36056e-08
1.16532e-08 0.0252548 -1.29799e-08
1.14653e-08 0.0252548 -1.33519e-08
1.15088e-08 0.0252548 -1.33215e-08
1.11274e-08 0.0252548 -1.3217e-08
1.15208e-08 0.0252548 -1.37664e-08
1.16828e-08 0.0252548 -1.32276e-08
1.14698e-08 0.0252548 -1.30777e-08
1.14843e-08 0.0252548 -1.33328e-08
1.1381e-08 0.0252548 -1.34496e-08
1.15522e-08 0.0252548 -1.34656e-08
1.13903e-08 0.0252548 -1.30696e-08
1.13943e-08 0.0252548 -1.31266e-08
1.1518e-08 0.0252548 -1.31343e-08
1.1552e-08 0.0252548 -1.32601e-08
1.18746e-08 0.0252548 -1.36349e-08
1.17365e-08 0.0252548 -1.32088e-08
1.12255e-08 0.0252548 -1.33321e-08
1.12584e-08 0.0252548 -1.3067e-08
1.14748e-08 0.0252548 -1.32623e-08
1.1747e-08 0.0252548 -1.33008e-08
1.15892e-08 0.0252548 -1.32046e-08
1.12003e-08 0.0252548 -1.31244e-08
1.12916e-08 0.0252548 -1.34865e-08
1.12744e-08 0.0252548 -1.35351e-08
1.13385e-08 0.0252548 -1.3283e-08
1.13708e-08 0.0265044 -1.30816e-08
1.11415e-08 0.0265044 -1.29923e-08
1.14525e-08 0.0265044 -1.28783e-08
1.08607e-08 0.0265044 -1.32036e-08
1.08486e-08 0.0265044 -1.27378e-08
1.10072e-08 0.0265044 -1.29587e-08
1.12036e-08 0.0265044 -1.29533e-08
1.12446e-08 0.0265044 -1.30017e-08
1.10172e-08 0.0265044 -1.30285e-08
1.13634e-08 0.0265044 -1.29992e-08
1.12193e-08 0.0265044 -1.27634e-08
1.10409e-08 0.0265044 -1.28632e-08
1.10628e-08 0.0265044 -1.25634e-08
1.109e-08 0.0265044 -1.28424e-08
1.16106e-08 0.0265044 -1.29232e-08
1.05697e-08 0.0265044 -1.2725e-08
1.10719e-08 0.0265044 -1.26006e-08
1.10047e-08 0.0265044 -1.28656e-08
1.09563e-08 0.0265044 -1.29396e-08
1.15632e-08 0.0265044 -1.28696e-08
1.10477e-08 0.0265044 -1.25846e-08
1.08847e-08 0.0265044 -1.30099e-08
1.10832e-08 0.0265044 -1.2758e-08
1.12203e-08 0.0265044 -1.31029e-08
1.11517e-08 0.0265044 -1.27395e-08
1.09221e-08 0.0277525 -1.25143e-08
1.1069e-08 0.0277525 -1.23643e-08
1.05859e-08 0.0277525 -1.31187e-08
1.05407e-08 0.0277525 -1.23161e-08
1.10686e-08 0.0277525 -1.25712e-08
1.08411e-08 0.0277525 -1.23697e-08
1.06985e-08 0.0277525 -1.27693e-08
1.06328e-08 0.0277525 -1.2614e-08
1.05516e-08 0.0277525 -1.25147e-08
1.06857e-08 0.0277525 -1.24415e-08
1.01906e-08 0.0277525 -1.25752e-08
1.06952e-08 0.0277525 -1.23184e-08
1.0737e-08 0.0277525 -1.24484e-08
1.04036e-08 0.0277525 -1.25026e-08
1.10127e-08 0.0277525 -1.22136e-08
1.06103e-08 0.0277525 -1.23882e-08
1.06165e-08 0.0277525 -1.23909e-08
1.05935e-08 0.0277525 -1.22347e-08
1.05268e-08 0.0277525 -1.22348e-08
1.08709e-08 0.0277525 -1.22016e-08
1.13007e-08 0.0277525 -1.21322e-08
1.04231e-08 0.0277525 -1.24026e-08
1.04897e-08 0.0277525 -1.23386e-08
1.07031e-08 0.0277525 -1.20239e-08
1.04137e-08 0.0277525 -1.22162e-08
1.00847e-08 0.028999 -1.17439e-08
9.97661e-09 0.028999 -1.23216e-08
9.74269e-09 0.028999 -1.17742e-08
1.00492e-08 0.028999 -1.20964e-08
1.04804e-08 0.028999 -1.21817e-08
1.0078e-08 0.028999 -1.19575e-08
9.92156e-09 0.028999 -1.19107e-08
9.92623e-09 0.028999 -1.17648e-08
9.78947e-09 0.028999 -1.19015e-08
1.00045e-08 0.028999 -1.18953e-08
9.8247e-09 0.028999 -1.18375e-08
1.00287e-08 0.028999 -1.1731e-08