<?xml version="1.0"?>
<VTKFile type="UnstructuredGrid" version="0.1" byte_order="LittleEndian">
<UnstructuredGrid>
<Piece NumberOfPoints="1025" NumberOfCells="640">
<Points>
<DataArray type="Float32" NumberOfComponents="3" format="ascii">
0 0 0
0.025 0 0
0.05 0 0
0.075 0 0
0.1 0 0
0 0.025 0
0.025 0.025 0
0.05 0.025 0
0.075 0.025 0
0.1 0.025 0
0 0.05 0
0.025 0.05 0
0.05 0.05 0
0.075 0.05 0
0.1 0.05 0
0 0.075 0
0.025 0.075 0
0.05 0.075 0
0.075 0.075 0
0.1 0.075 0
0 0.1 0
0.025 0.1 0
0.05 0.1 0
0.075 0.1 0
0.1 0.1 0
0 0 0.025
0.025 0 0.025
0.05 0 0.025
0.075 0 0.025
0.1 0 0.025
0 0.025 0.025
0.025 0.025 0.025
0.05 0.025 0.025
0.075 0.025 0.025
0.1 0.025 0.025
0 0.05 0.025
0.025 0.05 0.025
0.05 0.05 0.025
0.075 0.05 0.025
0.1 0.05 0.025
0 0.075 0.025
0.025 0.075 0.025
0.05 0.075 0.025
0.075 0.075 0.025
0.1 0.075 0.025
0 0.1 0.025
0.025 0.1 0.025
0.05 0.1 0.025
0.075 0.1 0.025
0.1 0.1 0.025
0 0 0.05
0.025 0 0.05
0.05 0 0.05
0.075 0 0.05
0.1 0 0.05
0 0.025 0.05
0.025 0.025 0.05
0.05 0.025 0.05
0.075 0.025 0.05
0.1 0.025 0.05
0 0.05 0.05
0.025 0.05 0.05
0.05 0.05 0.05
0.075 0.05 0.05
0.1 0.05 0.05
0 0.075 0.05
0.025 0.075 0.05
0.05 0.075 0.05
0.075 0.075 0.05
0.1 0.075 0.05
0 0.1 0.05
0.025 0.1 0.05
0.05 0.1 0.05
0.075 0.1 0.05
0.1 0.1 0.05
0 0 0.075
0.025 0 0.075
0.05 0 0.075
0.075 0 0.075
0.1 0 0.075
0 0.025 0.075
0.025 0.025 0.075
0.05 0.025 0.075
0.075 0.025 0.075
0.1 0.025 0.075
0 0.05 0.075
0.025 0.05 0.075
0.05 0.05 0.075
0.075 0.05 0.075
0.1 0.05 0.075
0 0.075 0.075
0.025 0.075 0.075
0.05 0.075 0.075
0.075 0.075 0.075
0.1 0.075 0.075
0 0.1 0.075
0.025 0.1 0.075
0.05 0.1 0.075
0.075 0.1 0.075
0.1 0.1 0.075
0 0 0.1
0.025 0 0.1
0.05 0 0.1
0.075 0 0.1
0.1 0 0.1
0 0.025 0.1
0.025 0.025 0.1
0.05 0.025 0.1
0.075 0.025 0.1
0.1 0.025 0.1
0 0.05 0.1
0.025 0.05 0.1
0.05 0.05 0.1
0.075 0.05 0.1
0.1 0.05 0.1
0 0.075 0.1
0.025 0.075 0.1
0.05 0.075 0.1
0.075 0.075 0.1
0.1 0.075 0.1
0 0.1 0.1
0.025 0.1 0.1
0.05 0.1 0.1
0.075 0.1 0.1
0.1 0.1 0.1
0 0 0.125
0.025 0 0.125
0.05 0 0.125
0.075 0 0.125
0.1 0 0.125
0 0.025 0.125
0.025 0.025 0.125
0.05 0.025 0.125
0.075 0.025 0.125
0.1 0.025 0.125
0 0.05 0.125
0.025 0.05 0.125
0.05 0.05 0.125
0.075 0.05 0.125
0.1 0.05 0.125
0 0.075 0.125
0.025 0.075 0.125
0.05 0.075 0.125
0.075 0.075 0.125
0.1 0.075 0.125
0 0.1 0.125
0.025 0.1 0.125
0.05 0.1 0.125
0.075 0.1 0.125
0.1 0.1 0.125
0 0 0.15
0.025 0 0.15
0.05 0 0.15
0.075 0 0.15
0.1 0 0.15
0 0.025 0.15
0.025 0.025 0.15
0.05 0.025 0.15
0.075 0.025 0.15
0.1 0.025 0.15
0 0.05 0.15
0.025 0.05 0.15
0.05 0.05 0.15
0.075 0.05 0.15
0.1 0.05 0.15
0 0.075 0.15
0.025 0.075 0.15
0.05 0.075 0.15
0.075 0.075 0.15
0.1 0.075 0.15
0 0.1 0.15
0.025 0.1 0.15
0.05 0.1 0.15
0.075 0.1 0.15
0.1 0.1 0.15
0 0 0.175
0.025 0 0.175
0.05 0 0.175
0.075 0 0.175
0.1 0 0.175
0 0.025 0.175
0.025 0.025 0.175
0.05 0.025 0.175
0.075 0.025 0.175
0.1 0.025 0.175
0 0.05 0.175
0.025 0.05 0.175
0.05 0.05 0.175
0.075 0.05 0.175
0.1 0.05 0.175
0 0.075 0.175
0.025 0.075 0.175
0.05 0.075 0.175
0.075 0.075 0.175
0.1 0.075 0.175
0 0.1 0.175
0.025 0.1 0.175
0.05 0.1 0.175
0.075 0.1 0.175
0.1 0.1 0.175
0 0 0.2
0.025 0 0.2
0.05 0 0.2
0.075 0 0.2
0.1 0 0.2
0 0.025 0.2
0.025 0.025 0.2
0.05 0.025 0.2
0.075 0.025 0.2
0.1 0.025 0.2
0 0.05 0.2
0.025 0.05 0.2
0.05 0.05 0.2
0.075 0.05 0.2
0.1 0.05 0.2
0 0.075 0.2
0.025 0.075 0.2
0.05 0.075 0.2
0.075 0.075 0.2
0.1 0.075 0.2
0 0.1 0.2
0.025 0.1 0.2
0.05 0.1 0.2
0.075 0.1 0.2
0.1 0.1 0.2
0 0 0.225
0.025 0 0.225
0.05 0 0.225
0.075 0 0.225
0.1 0 0.225
0 0.025 0.225
0.025 0.025 0.225
0.05 0.025 0.225
0.075 0.025 0.225
0.1 0.025 0.225
0 0.05 0.225
0.025 0.05 0.225
0.05 0.05 0.225
0.075 0.05 0.225
0.1 0.05 0.225
0 0.075 0.225
0.025 0.075 0.225
0.05 0.075 0.225
0.075 0.075 0.225
0.1 0.075 0.225
0 0.1 0.225
0.025 0.1 0.225
0.05 0.1 0.225
0.075 0.1 0.225
0.1 0.1 0.225
0 0 0.25
0.025 0 0.25
0.05 0 0.25
0.075 0 0.25
0.1 0 0.25
0 0.025 0.25
0.025 0.025 0.25
0.05 0.025 0.25
0.075 0.025 0.25
0.1 0.025 0.25
0 0.05 0.25
0.025 0.05 0.25
0.05 0.05 0.25
0.075 0.05 0.25
0.1 0.05 0.25
0 0.075 0.25
0.025 0.075 0.25
0.05 0.075 0.25
0.075 0.075 0.25
0.1 0.075 0.25
0 0.1 0.25
0.025 0.1 0.25
0.05 0.1 0.25
0.075 0.1 0.25
0.1 0.1 0.25
0 0 0.275
0.025 0 0.275
0.05 0 0.275
0.075 0 0.275
0.1 0 0.275
0 0.025 0.275
0.025 0.025 0.275
0.05 0.025 0.275
0.075 0.025 0.275
0.1 0.025 0.275
0 0.05 0.275
0.025 0.05 0.275
0.05 0.05 0.275
0.075 0.05 0.275
0.1 0.05 0.275
0 0.075 0.275
0.025 0.075 0.275
0.05 0.075 0.275
0.075 0.075 0.275
0.1 0.075 0.275
0 0.1 0.275
0.025 0.1 0.275
0.05 0.1 0.275
0.075 0.1 0.275
0.1 0.1 0.275
0 0 0.3
0.025 0 0.3
0.05 0 0.3
0.075 0 0.3
0.1 0 0.3
0 0.025 0.3
0.025 0.025 0.3
0.05 0.025 0.3
0.075 0.025 0.3
0.1 0.025 0.3
0 0.05 0.3
0.025 0.05 0.3
0.05 0.05 0.3
0.075 0.05 0.3
0.1 0.05 0.3
0 0.075 0.3
0.025 0.075 0.3
0.05 0.075 0.3
0.075 0.075 0.3
0.1 0.075 0.3
0 0.1 0.3
0.025 0.1 0.3
0.05 0.1 0.3
0.075 0.1 0.3
0.1 0.1 0.3
0 0 0.325
0.025 0 0.325
0.05 0 0.325
0.075 0 0.325
0.1 0 0.325
0 0.025 0.325
0.025 0.025 0.325
0.05 0.025 0.325
0.075 0.025 0.325
0.1 0.025 0.325
0 0.05 0.325
0.025 0.05 0.325
0.05 0.05 0.325
0.075 0.05 0.325
0.1 0.05 0.325
0 0.075 0.325
0.025 0.075 0.325
0.05 0.075 0.325
0.075 0.075 0.325
0.1 0.075 0.325
0 0.1 0.325
0.025 0.1 0.325
0.05 0.1 0.325
0.075 0.1 0.325
0.1 0.1 0.325
0 0 0.35
0.025 0 0.35
0.05 0 0.35
0.075 0 0.35
0.1 0 0.35
0 0.025 0.35
0.025 0.025 0.35
0.05 0.025 0.35
0.075 0.025 0.35
0.1 0.025 0.35
0 0.05 0.35
0.025 0.05 0.35
0.05 0.05 0.35
0.075 0.05 0.35
0.1 0.05 0.35
0 0.075 0.35
0.025 0.075 0.35
0.05 0.075 0.35
0.075 0.075 0.35
0.1 0.075 0.35
0 0.1 0.35
0.025 0.1 0.35
0.05 0.1 0.35
0.075 0.1 0.35
0.1 0.1 0.35
0 0 0.375
0.025 0 0.375
0.05 0 0.375
0.075 0 0.375
0.1 0 0.375
0 0.025 0.375
0.025 0.025 0.375
0.05 0.025 0.375
0.075 0.025 0.375
0.1 0.025 0.375
0 0.05 0.375
0.025 0.05 0.375
0.05 0.05 0.375
0.075 0.05 0.375
0.1 0.05 0.375
0 0.075 0.375
0.025 0.075 0.375
0.05 0.075 0.375
0.075 0.075 0.375
0.1 0.075 0.375
0 0.1 0.375
0.025 0.1 0.375
0.05 0.1 0.375
0.075 0.1 0.375
0.1 0.1 0.375
0 0 0.4
0.025 0 0.4
0.05 0 0.4
0.075 0 0.4
0.1 0 0.4
0 0.025 0.4
0.025 0.025 0.4
0.05 0.025 0.4
0.075 0.025 0.4
0.1 0.025 0.4
0 0.05 0.4
0.025 0.05 0.4
0.05 0.05 0.4
0.075 0.05 0.4
0.1 0.05 0.4
0 0.075 0.4
0.025 0.075 0.4
0.05 0.075 0.4
0.075 0.075 0.4
0.1 0.075 0.4
0 0.1 0.4
0.025 0.1 0.4
0.05 0.1 0.4
0.075 0.1 0.4
0.1 0.1 0.4
0 0 0.425
0.025 0 0.425
0.05 0 0.425
0.075 0 0.425
0.1 0 0.425
0 0.025 0.425
0.025 0.025 0.425
0.05 0.025 0.425
0.075 0.025 0.425
0.1 0.025 0.425
0 0.05 0.425
0.025 0.05 0.425
0.05 0.05 0.425
0.075 0.05 0.425
0.1 0.05 0.425
0 0.075 0.425
0.025 0.075 0.425
0.05 0.075 0.425
0.075 0.075 0.425
0.1 0.075 0.425
0 0.1 0.425
0.025 0.1 0.425
0.05 0.1 0.425
0.075 0.1 0.425
0.1 0.1 0.425
0 0 0.45
0.025 0 0.45
0.05 0 0.45
0.075 0 0.45
0.1 0 0.45
0 0.025 0.45
0.025 0.025 0.45
0.05 0.025 0.45
0.075 0.025 0.45
0.1 0.025 0.45
0 0.05 0.45
0.025 0.05 0.45
0.05 0.05 0.45
0.075 0.05 0.45
0.1 0.05 0.45
0 0.075 0.45
0.025 0.075 0.45
0.05 0.075 0.45
0.075 0.075 0.45
0.1 0.075 0.45
0 0.1 0.45
0.025 0.1 0.45
0.05 0.1 0.45
0.075 0.1 0.45
0.1 0.1 0.45
0 0 0.475
0.025 0 0.475
0.05 0 0.475
0.075 0 0.475
0.1 0 0.475
0 0.025 0.475
0.025 0.025 0.475
0.05 0.025 0.475
0.075 0.025 0.475
0.1 0.025 0.475
0 0.05 0.475
0.025 0.05 0.475
0.05 0.05 0.475
0.075 0.05 0.475
0.1 0.05 0.475
0 0.075 0.475
0.025 0.075 0.475
0.05 0.075 0.475
0.075 0.075 0.475
0.1 0.075 0.475
0 0.1 0.475
0.025 0.1 0.475
0.05 0.1 0.475
0.075 0.1 0.475
0.1 0.1 0.475
0 0 0.5
0.025 0 0.5
0.05 0 0.5
0.075 0 0.5
0.1 0 0.5
0 0.025 0.5
0.025 0.025 0.5
0.05 0.025 0.5
0.075 0.025 0.5
0.1 0.025 0.5
0 0.05 0.5
0.025 0.05 0.5
0.05 0.05 0.5
0.075 0.05 0.5
0.1 0.05 0.5
0 0.075 0.5
0.025 0.075 0.5
0.05 0.075 0.5
0.075 0.075 0.5
0.1 0.075 0.5
0 0.1 0.5
0.025 0.1 0.5
0.05 0.1 0.5
0.075 0.1 0.5
0.1 0.1 0.5
0 0 0.525
0.025 0 0.525
0.05 0 0.525
0.075 0 0.525
0.1 0 0.525
0 0.025 0.525
0.025 0.025 0.525
0.05 0.025 0.525
0.075 0.025 0.525
0.1 0.025 0.525
0 0.05 0.525
0.025 0.05 0.525
0.05 0.05 0.525
0.075 0.05 0.525
0.1 0.05 0.525
0 0.075 0.525
0.025 0.075 0.525
0.05 0.075 0.525
0.075 0.075 0.525
0.1 0.075 0.525
0 0.1 0.525
0.025 0.1 0.525
0.05 0.1 0.525
0.075 0.1 0.525
0.1 0.1 0.525
0 0 0.55
0.025 0 0.55
0.05 0 0.55
0.075 0 0.55
0.1 0 0.55
0 0.025 0.55
0.025 0.025 0.55
0.05 0.025 0.55
0.075 0.025 0.55
0.1 0.025 0.55
0 0.05 0.55
0.025 0.05 0.55
0.05 0.05 0.55
0.075 0.05 0.55
0.1 0.05 0.55
0 0.075 0.55
0.025 0.075 0.55
0.05 0.075 0.55
0.075 0.075 0.55
0.1 0.075 0.55
0 0.1 0.55
0.025 0.1 0.55
0.05 0.1 0.55
0.075 0.1 0.55
0.1 0.1 0.55
0 0 0.575
0.025 0 0.575
0.05 0 0.575
0.075 0 0.575
0.1 0 0.575
0 0.025 0.575
0.025 0.025 0.575
0.05 0.025 0.575
0.075 0.025 0.575
0.1 0.025 0.575
0 0.05 0.575
0.025 0.05 0.575
0.05 0.05 0.575
0.075 0.05 0.575
0.1 0.05 0.575
0 0.075 0.575
0.025 0.075 0.575
0.05 0.075 0.575
0.075 0.075 0.575
0.1 0.075 0.575
0 0.1 0.575
0.025 0.1 0.575
0.05 0.1 0.575
0.075 0.1 0.575
0.1 0.1 0.575
0 0 0.6
0.025 0 0.6
0.05 0 0.6
0.075 0 0.6
0.1 0 0.6
0 0.025 0.6
0.025 0.025 0.6
0.05 0.025 0.6
0.075 0.025 0.6
0.1 0.025 0.6
0 0.05 0.6
0.025 0.05 0.6
0.05 0.05 0.6
0.075 0.05 0.6
0.1 0.05 0.6
0 0.075 0.6
0.025 0.075 0.6
0.05 0.075 0.6
0.075 0.075 0.6
0.1 0.075 0.6
0 0.1 0.6
0.025 0.1 0.6
0.05 0.1 0.6
0.075 0.1 0.6
0.1 0.1 0.6
0 0 0.625
0.025 0 0.625
0.05 0 0.625
0.075 0 0.625
0.1 0 0.625
0 0.025 0.625
0.025 0.025 0.625
0.05 0.025 0.625
0.075 0.025 0.625
0.1 0.025 0.625
0 0.05 0.625
0.025 0.05 0.625
0.05 0.05 0.625
0.075 0.05 0.625
0.1 0.05 0.625
0 0.075 0.625
0.025 0.075 0.625
0.05 0.075 0.625
0.075 0.075 0.625
0.1 0.075 0.625
0 0.1 0.625
0.025 0.1 0.625
0.05 0.1 0.625
0.075 0.1 0.625
0.1 0.1 0.625
0 0 0.65
0.025 0 0.65
0.05 0 0.65
0.075 0 0.65
0.1 0 0.65
0 0.025 0.65
0.025 0.025 0.65
0.05 0.025 0.65
0.075 0.025 0.65
0.1 0.025 0.65
0 0.05 0.65
0.025 0.05 0.65
0.05 0.05 0.65
0.075 0.05 0.65
0.1 0.05 0.65
0 0.075 0.65
0.025 0.075 0.65
0.05 0.075 0.65
0.075 0.075 0.65
0.1 0.075 0.65
0 0.1 0.65
0.025 0.1 0.65
0.05 0.1 0.65
0.075 0.1 0.65
0.1 0.1 0.65
0 0 0.675
0.025 0 0.675
0.05 0 0.675
0.075 0 0.675
0.1 0 0.675
[...]
<PointData Vectors="Displacement">
<DataArray type="Float32" Name="Displacement" NumberOfComponents="3" format="ascii">
0 0 0
0 0 0
0 0 0
0 0 0
0 0 0
0 0 0
0 0 0
0 0 0
0 0 0
0 0 0
0 0 0
0 0 0
0 0 0
0 0 0
0 0 0
0 0 0
0 0 0
0 0 0
0 0 0
0 0 0
0 0 0
0 0 0
0 0 0
0 0 0
0 0 0
-5.11109e-10 0.000531028 1.84038e-09
-8.33347e-10 0.000531027 1.84214e-09
-1.04793e-09 0.000531028 1.91313e-09
-1.26209e-09 0.000531027 1.87654e-09
-1.59205e-09 0.000531028 1.88796e-09
-5.50257e-10 0.000531028 1.8657e-09
-8.3786e-10 0.000531028 1.87086e-09
-1.02443e-09 0.000531028 1.85433e-09
-1.26714e-09 0.000531027 1.85022e-09
-1.57856e-09 0.000531027 1.86018e-09
-5.39364e-10 0.000531027 1.8871e-09
-8.54486e-10 0.000531027 1.87734e-09
-1.04743e-09 0.000531028 1.91533e-09
-1.21731e-09 0.000531027 1.88048e-09
-1.59029e-09 0.000531027 1.85593e-09
-4.89366e-10 0.000531027 1.85364e-09
-8.61007e-10 0.000531027 1.87234e-09
-1.05172e-09 0.000531027 1.83105e-09
-1.28498e-09 0.000531027 1.87535e-09
-1.56142e-09 0.000531027 1.88007e-09
-5.31977e-10 0.000531027 1.94797e-09
-8.28034e-10 0.000531027 1.87249e-09
-1.05845e-09 0.000531027 1.83169e-09
-1.25947e-09 0.000531026 1.84124e-09
-1.60883e-09 0.000531027 1.8865e-09
-1.48501e-09 0.00109045 3.76501e-09
-1.85594e-09 0.00109045 3.6883e-09
-2.08813e-09 0.00109045 3.69977e-09
-2.38342e-09 0.00109045 3.72101e-09
-2.60658e-09 0.00109045 3.77664e-09
-1.50353e-09 0.00109045 3.74654e-09
-1.78526e-09 0.00109045 3.73955e-09
-2.05417e-09 0.00109045 3.65965e-09
-2.38977e-09 0.00109045 3.70221e-09
-2.77831e-09 0.00109045 3.71157e-09
-1.41561e-09 0.00109045 3.74323e-09
-1.78255e-09 0.00109045 3.74058e-09
-2.06382e-09 0.00109045 3.72549e-09
-2.31937e-09 0.00109045 3.68726e-09
-2.70232e-09 0.00109045 3.69661e-09
-1.47598e-09 0.00109045 3.68818e-09
-1.80305e-09 0.00109045 3.69161e-09
-2.09933e-09 0.00109045 3.71299e-09
-2.3855e-09 0.00109045 3.67825e-09
-2.66079e-09 0.00109045 3.68555e-09
-1.32099e-09 0.00109045 3.59382e-09
-1.81162e-09 0.00109045 3.70742e-09
-2.13875e-09 0.00109045 3.67885e-09
-2.42703e-09 0.00109045 3.76041e-09
-2.57912e-09 0.00109045 3.68374e-09
-2.446e-09 0.00170485 5.48904e-09
-2.70605e-09 0.00170485 5.41349e-09
-3.11601e-09 0.00170485 5.46538e-09
-3.40863e-09 0.00170485 5.34602e-09
-3.61502e-09 0.00170485 5.42803e-09
-2.42742e-09 0.00170485 5.35926e-09
-2.77091e-09 0.00170485 5.41818e-09
-3.05244e-09 0.00170485 5.40077e-09
-3.3953e-09 0.00170485 5.401e-09
-3.47849e-09 0.00170485 5.38845e-09
-2.45595e-09 0.00170485 5.35842e-09
-2.69002e-09 0.00170485 5.36e-09
-3.04953e-09 0.00170485 5.37434e-09
-3.33475e-09 0.00170485 5.39348e-09
-3.67638e-09 0.00170485 5.35411e-09
-2.37966e-09 0.00170485 5.24244e-09
-2.75148e-09 0.00170485 5.32458e-09
-3.07107e-09 0.00170485 5.29731e-09
-3.38695e-09 0.00170485 5.26573e-09
-3.74865e-09 0.00170485 5.35156e-09
-2.34482e-09 0.00170485 5.31729e-09
-2.61074e-09 0.00170485 5.17665e-09
-3.15575e-09 0.00170485 5.28233e-09
-3.41507e-09 0.00170485 5.27797e-09
-3.67014e-09 0.00170485 5.20083e-09
-3.39948e-09 0.00239725 6.78455e-09
-3.78447e-09 0.00239725 6.55554e-09
-4.06613e-09 0.00239725 6.62068e-09
-4.22712e-09 0.00239725 6.68831e-09
-4.39881e-09 0.00239725 6.782e-09
-3.4807e-09 0.00239725 6.69396e-09
-3.67307e-09 0.00239725 6.70864e-09
-3.98475e-09 0.00239725 6.75723e-09
-4.26657e-09 0.00239725 6.76008e-09
-4.44035e-09 0.00239725 6.61043e-09
-3.58717e-09 0.00239725 6.52658e-09
-3.77147e-09 0.00239725 6.6363e-09
-3.96258e-09 0.00239725 6.60847e-09
-4.16213e-09 0.00239725 6.57033e-09
-4.40927e-09 0.00239725 6.66933e-09
-3.46522e-09 0.00239725 6.51684e-09
-3.71625e-09 0.00239725 6.58486e-09
-4.05076e-09 0.00239725 6.62223e-09
-4.22782e-09 0.00239725 6.70298e-09
-4.54292e-09 0.00239725 6.59687e-09
-3.36107e-09 0.00239725 6.64614e-09
-3.70758e-09 0.00239725 6.54856e-09
-3.89696e-09 0.00239725 6.64418e-09
-4.40042e-09 0.00239725 6.61251e-09
-4.33285e-09 0.00239725 6.50511e-09
-4.77952e-09 0.00318541 7.43309e-09
-4.80326e-09 0.00318541 7.51559e-09
-5.04497e-09 0.00318541 7.4443e-09
-4.93081e-09 0.00318541 7.49538e-09
-4.80578e-09 0.00318541 7.35815e-09
-4.54583e-09 0.00318541 7.45451e-09
-4.75967e-09 0.00318541 7.51513e-09
-4.76407e-09 0.00318541 7.43373e-09
-4.96645e-09 0.00318541 7.45555e-09
-5.00325e-09 0.00318541 7.60567e-09
-4.5133e-09 0.00318541 7.35265e-09
-4.78026e-09 0.00318541 7.39158e-09
-4.7989e-09 0.00318541 7.53754e-09
-4.90475e-09 0.00318541 7.53786e-09
-4.95893e-09 0.00318541 7.52214e-09
-4.76842e-09 0.00318541 7.45024e-09
-4.64988e-09 0.00318541 7.48858e-09
-4.76949e-09 0.00318541 7.56556e-09
-5.05299e-09 0.00318541 7.59065e-09
-4.95319e-09 0.00318541 7.62308e-09
-4.63915e-09 0.00318541 7.61892e-09
-4.40929e-09 0.00318541 7.58892e-09
-4.81567e-09 0.00318541 7.64284e-09
-5.05349e-09 0.00318541 7.4737e-09
-5.04254e-09 0.00318541 7.44379e-09
-5.6587e-09 0.00408034 7.79399e-09
-5.86454e-09 0.00408034 7.87668e-09
-5.52637e-09 0.00408034 7.72401e-09
-5.4384e-09 0.00408034 7.71381e-09
-5.27073e-09 0.00408034 8.0143e-09
-5.56674e-09 0.00408034 7.91184e-09
-5.65935e-09 0.00408034 7.8503e-09
-5.5801e-09 0.00408034 7.91337e-09
-5.49858e-09 0.00408034 7.83917e-09
-5.48583e-09 0.00408034 7.86423e-09
-5.83695e-09 0.00408034 7.89578e-09
-5.57899e-09 0.00408034 7.92623e-09
-5.54502e-09 0.00408034 7.92864e-09
-5.52837e-09 0.00408034 7.94082e-09
-5.63599e-09 0.00408034 7.86811e-09
-5.60396e-09 0.00408034 7.8905e-09
-5.50523e-09 0.00408034 7.96685e-09
-5.60022e-09 0.00408034 8.01947e-09
-5.72275e-09 0.00408034 7.97442e-09
-5.60288e-09 0.00408034 8.01776e-09
-5.46577e-09 0.00408034 7.8741e-09
-5.46352e-09 0.00408034 7.88845e-09
-5.64057e-09 0.00408034 7.84736e-09
-5.76375e-09 0.00408034 8.14715e-09
-5.34058e-09 0.00408034 8.03156e-09
-6.30467e-09 0.00508512 7.72562e-09
-6.22484e-09 0.00508512 7.87374e-09
-6.24432e-09 0.00508512 7.83981e-09
-5.91978e-09 0.00508512 7.67148e-09
-5.72204e-09 0.00508512 7.65584e-09
-6.43071e-09 0.00508512 7.7596e-09
-6.35106e-09 0.00508512 7.8386e-09
-6.21089e-09 0.00508512 7.79757e-09
-6.11192e-09 0.00508512 7.89611e-09
-5.87798e-09 0.00508512 7.80907e-09
-6.29567e-09 0.00508512 7.97292e-09
-6.35089e-09 0.00508512 7.83336e-09
-6.31519e-09 0.00508512 7.91272e-09
-6.00727e-09 0.00508512 7.93342e-09
-5.90604e-09 0.00508512 7.96274e-09
-6.39704e-09 0.00508512 7.8497e-09
-6.3014e-09 0.00508512 8.03835e-09
-6.17544e-09 0.00508512 7.86856e-09
-6.14747e-09 0.00508512 8.10939e-09
-5.88449e-09 0.00508512 7.97299e-09
-6.49504e-09 0.00508512 7.85587e-09
-6.2369e-09 0.00508512 7.88378e-09
-6.24332e-09 0.00508512 7.79625e-09
-6.05429e-09 0.00508512 7.98494e-09
-6.06777e-09 0.00508512 8.15044e-09
-7.02355e-09 0.00619427 7.47178e-09
-7.01993e-09 0.00619427 7.24524e-09
-6.55563e-09 0.00619427 7.41941e-09
-6.44179e-09 0.00619427 7.36684e-09
-5.92945e-09 0.00619427 7.30141e-09
-7.10786e-09 0.00619427 7.36749e-09
-6.83307e-09 0.00619427 7.4397e-09
-6.63082e-09 0.00619427 7.46338e-09
-6.41169e-09 0.00619427 7.42358e-09
-6.10127e-09 0.00619427 7.35912e-09
-7.17866e-09 0.00619427 7.33593e-09
-6.9173e-09 0.00619427 7.46485e-09
-6.59365e-09 0.00619427 7.40501e-09
-6.47351e-09 0.00619427 7.46833e-09
-6.12975e-09 0.00619427 7.5121e-09
-7.08846e-09 0.00619427 7.45785e-09
-6.86146e-09 0.00619427 7.42425e-09
-6.6625e-09 0.00619427 7.50816e-09
-6.46556e-09 0.00619427 7.51778e-09
-6.23463e-09 0.00619427 7.50429e-09
-6.67054e-09 0.00619427 7.42612e-09
-6.91536e-09 0.00619427 7.51368e-09
-6.62166e-09 0.00619427 7.438e-09
-6.34158e-09 0.00619427 7.55797e-09
-6.03889e-09 0.00619427 7.49598e-09
-7.32497e-09 0.0073938 6.09034e-09
-7.24286e-09 0.0073938 6.33398e-09
-6.98348e-09 0.0073938 6.43471e-09
-6.48603e-09 0.0073938 6.46598e-09
-6.29009e-09 0.0073938 6.34924e-09
-7.47018e-09 0.0073938 6.44194e-09
-7.26259e-09 0.0073938 6.43667e-09
-6.82267e-09 0.0073938 6.48674e-09
-6.61154e-09 0.0073938 6.37564e-09
-6.34045e-09 0.0073938 6.46649e-09
-7.61899e-09 0.0073938 6.45282e-09
-7.2848e-09 0.0073938 6.50168e-09
-6.83216e-09 0.0073938 6.43736e-09
-6.62155e-09 0.0073938 6.58376e-09
-6.39596e-09 0.0073938 6.66786e-09
-7.53793e-09 0.0073938 6.50048e-09
-7.24161e-09 0.0073938 6.52696e-09
-6.94393e-09 0.0073938 6.61187e-09
-6.63659e-09 0.0073938 6.74552e-09
-6.40825e-09 0.0073938 6.60062e-09
-7.4613e-09 0.0073938 6.59747e-09
-7.15158e-09 0.0073938 6.58323e-09
-7.00236e-09 0.0073938 6.57848e-09
-6.52988e-09 0.0073938 6.62633e-09
-6.62322e-09 0.0073938 6.70668e-09
-7.94281e-09 0.00866215 5.09852e-09
-7.32856e-09 0.00866215 5.03131e-09
-6.9626e-09 0.00866215 5.04386e-09
-6.50881e-09 0.00866215 5.13247e-09
-5.91634e-09 0.00866215 5.35924e-09
-7.90949e-09 0.00866215 4.97124e-09
-7.39819e-09 0.00866215 5.05106e-09
-7.00654e-09 0.00866215 5.11791e-09
-6.59379e-09 0.00866215 5.18172e-09
-6.14764e-09 0.00866215 5.13443e-09
-7.97382e-09 0.00866215 5.13908e-09
-7.40646e-09 0.00866215 5.21441e-09
-6.94543e-09 0.00866215 5.29243e-09
-6.62005e-09 0.00866215 5.27297e-09
-6.25286e-09 0.00866215 5.2639e-09
-7.83133e-09 0.00866215 5.19092e-09
-7.37833e-09 0.00866215 5.18725e-09
-6.90287e-09 0.00866215 5.3163e-09
-6.64829e-09 0.00866215 5.28848e-09
-6.42491e-09 0.00866215 5.31166e-09
-7.63351e-09 0.00866215 5.3887e-09
-7.33514e-09 0.00866215 5.33922e-09
-6.90371e-09 0.00866215 5.18388e-09
-6.80342e-09 0.00866215 5.37726e-09
-6.10527e-09 0.00866215 5.38012e-09
-7.52205e-09 0.00997223 3.4828e-09
-7.41181e-09 0.00997223 3.57969e-09
-6.90812e-09 0.00997223 3.53744e-09
-6.40043e-09 0.00997223 3.72056e-09
-6.17026e-09 0.00997223 3.62867e-09
-7.92856e-09 0.00997223 3.61563e-09
-7.32419e-09 0.00997223 3.5313e-09
-6.84932e-09 0.00997222 3.58094e-09
-6.4653e-09 0.00997223 3.67015e-09
-5.94539e-09 0.00997223 3.71665e-09
-7.94915e-09 0.00997223 3.68908e-09
-7.32195e-09 0.00997223 3.72563e-09
-6.86421e-09 0.00997223 3.70843e-09
-6.56024e-09 0.00997223 3.66999e-09
-6.00626e-09 0.00997223 3.67027e-09
-7.78808e-09 0.00997223 3.70821e-09
-7.29465e-09 0.00997223 3.74628e-09
-6.87455e-09 0.00997223 3.72671e-09
-6.48834e-09 0.00997223 3.78488e-09
-6.09406e-09 0.00997223 3.76327e-09
-7.31424e-09 0.00997223 3.56345e-09
-7.26885e-09 0.00997223 3.68844e-09
-6.75324e-09 0.00997223 3.5475e-09
-6.28439e-09 0.00997223 3.76027e-09
-6.25928e-09 0.00997223 3.79666e-09
-7.55791e-09 0.0112944 1.9269e-09
-6.80838e-09 0.0112944 1.81895e-09
-6.54613e-09 0.0112944 2.11659e-09
-6.15192e-09 0.0112944 1.86114e-09
-5.76971e-09 0.0112944 1.93747e-09
-7.46584e-09 0.0112944 2.01018e-09
-7.02706e-09 0.0112944 2.07803e-09
-6.56755e-09 0.0112944 1.94858e-09
-6.21606e-09 0.0112944 1.99733e-09
-5.80471e-09 0.0112944 1.89433e-09
-7.304e-09 0.0112944 1.85573e-09
-7.06871e-09 0.0112944 2.01249e-09
-6.57958e-09 0.0112944 1.97535e-09
-6.24656e-09 0.0112944 1.99808e-09
-5.78233e-09 0.0112944 2.04325e-09
-7.12544e-09 0.0112944 1.8751e-09
-7.02651e-09 0.0112944 1.9549e-09
-6.48671e-09 0.0112944 1.91107e-09
-6.18341e-09 0.0112944 1.88715e-09
-5.74701e-09 0.0112944 1.86465e-09
-7.46695e-09 0.0112944 1.95531e-09
-6.85217e-09 0.0112944 2.05925e-09
-6.58031e-09 0.0112944 1.86448e-09
-6.17658e-09 0.0112944 1.91829e-09
-6.04392e-09 0.0112944 1.82628e-09
-6.83497e-09 0.0126002 3.4896e-10
-6.21664e-09 0.0126002 3.25003e-10
-5.93071e-09 0.0126002 6.16876e-11
-5.93034e-09 0.0126002 1.03363e-10
-5.2393e-09 0.0126002 -1.25008e-10
-6.68071e-09 0.0126002 3.61865e-10
-6.42092e-09 0.0126002 1.26544e-10
-6.09741e-09 0.0126002 2.87436e-10
-5.67449e-09 0.0126002 2.23237e-10
-5.3093e-09 0.0126002 2.60007e-10
-6.68618e-09 0.0126002 1.10573e-10
-6.39115e-09 0.0126002 3.52703e-10
-5.94168e-09 0.0126002 1.53957e-10
-5.58346e-09 0.0126002 2.63947e-10
-5.40767e-09 0.0126002 8.62119e-11
-6.84615e-09 0.0126002 2.26731e-10
-6.39185e-09 0.0126002 1.22172e-10
-5.87555e-09 0.0126002 2.09946e-10
-5.59964e-09 0.0126002 3.72871e-11
-5.31912e-09 0.0126002 -1.45741e-11
-6.6914e-09 0.0126002 3.78471e-11
-6.42088e-09 0.0126002 1.89831e-10
-5.9834e-09 0.0126002 3.28946e-10
-5.5531e-09 0.0126002 -3.97726e-11
-4.79957e-09 0.0126002 -2.65734e-10
-5.40782e-09 0.0138671 -1.82186e-09
-5.47318e-09 0.0138671 -1.44107e-09
-5.38042e-09 0.0138671 -1.76799e-09
-5.09676e-09 0.0138671 -1.76981e-09
-5.08334e-09 0.0138671 -1.56378e-09
-5.62434e-09 0.0138671 -1.47261e-09
-5.53646e-09 0.0138671 -1.62136e-09
-5.30202e-09 0.0138671 -1.67411e-09
-5.08428e-09 0.0138671 -1.76582e-09
-4.83399e-09 0.0138671 -1.57977e-09
-5.97836e-09 0.0138671 -1.51738e-09
-5.56705e-09 0.0138671 -1.67758e-09
-5.18042e-09 0.0138671 -1.39897e-09
-5.06342e-09 0.0138671 -1.57879e-09
-4.96184e-09 0.0138671 -1.80458e-09
-6.09008e-09 0.0138671 -1.62255e-09
-5.50604e-09 0.0138671 -1.57601e-09
-5.02857e-09 0.0138671 -1.69401e-09
-5.02865e-09 0.0138671 -1.81945e-09
-4.74745e-09 0.0138671 -1.57338e-09
-6.33743e-09 0.0138671 -1.2392e-09
-5.49558e-09 0.0138671 -1.67624e-09
-5.19154e-09 0.0138671 -1.73501e-09
-4.83992e-09 0.0138671 -1.73351e-09
-4.52523e-09 0.0138671 -1.52382e-09
-4.58029e-09 0.015082 -3.02632e-09
-4.46513e-09 0.015082 -3.5663e-09
-4.5992e-09 0.015082 -3.17467e-09
-4.18931e-09 0.015082 -3.65712e-09
-3.75509e-09 0.015082 -3.30883e-09
-4.31253e-09 0.015082 -3.35474e-09
-4.49171e-09 0.015082 -3.04421e-09
-4.52489e-09 0.015082 -3.39467e-09
-4.22948e-09 0.015082 -3.40922e-09
-4.13492e-09 0.015082 -3.48319e-09
-4.84769e-09 0.015082 -3.18236e-09
-4.46816e-09 0.015082 -3.33571e-09
-4.26256e-09 0.015082 -3.38131e-09
-4.23748e-09 0.015082 -3.43742e-09
-3.9619e-09 0.015082 -3.45315e-09
-4.78716e-09 0.015082 -3.22894e-09
-4.77656e-09 0.015082 -3.30868e-09
-4.21867e-09 0.015082 -3.4118e-09
-4.08271e-09 0.015082 -3.47019e-09
-3.7416e-09 0.015082 -3.33793e-09
-4.79819e-09 0.015082 -3.38514e-09
-4.82312e-09 0.015082 -3.31085e-09
-4.31371e-09 0.015082 -3.58061e-09
-4.02984e-09 0.015082 -3.10894e-09
-3.80954e-09 0.015082 -3.17494e-09
-3.82945e-09 0.0162451 -4.50429e-09
-3.42248e-09 0.0162451 -4.76156e-09
-3.49279e-09 0.0162451 -4.64137e-09
-3.47294e-09 0.0162451 -4.95214e-09
-2.91315e-09 0.0162451 -4.7393e-09
-3.94648e-09 0.0162451 -4.64711e-09
-3.34491e-09 0.0162451 -4.73398e-09
-3.42968e-09 0.0162451 -4.8392e-09
-3.29336e-09 0.0162451 -4.77806e-09
-2.98993e-09 0.0162451 -4.75328e-09
-3.56085e-09 0.0162451 -4.74197e-09
-3.55022e-09 0.0162451 -4.64206e-09
-3.2022e-09 0.0162451 -4.76967e-09
-3.30442e-09 0.0162451 -4.99484e-09
-3.03167e-09 0.0162451 -4.86568e-09
-3.55832e-09 0.0162451 -4.79207e-09
-3.56348e-09 0.0162451 -4.77725e-09
-3.25954e-09 0.0162451 -4.65377e-09
-3.14843e-09 0.0162451 -4.71252e-09
-2.75359e-09 0.0162451 -4.86609e-09
-3.73873e-09 0.0162451 -5.01465e-09
-3.37661e-09 0.0162451 -5.05617e-09
-3.3561e-09 0.0162451 -4.56124e-09
-3.01458e-09 0.0162451 -4.70945e-09
-2.70463e-09 0.0162451 -5.01138e-09
-2.17309e-09 0.0173712 -5.37788e-09
-2.3842e-09 0.0173712 -5.31294e-09
-2.18267e-09 0.0173712 -5.63183e-09
-2.40502e-09 0.0173712 -5.38101e-09
-2.00173e-09 0.0173712 -5.6194e-09
-2.21859e-09 0.0173712 -5.44138e-09
-2.36315e-09 0.0173712 -5.65832e-09
-2.25002e-09 0.0173712 -5.53668e-09
-2.30065e-09 0.0173712 -5.82578e-09
-2.04206e-09 0.0173712 -5.62751e-09
-2.36238e-09 0.0173712 -5.58383e-09
-2.32567e-09 0.0173712 -5.91878e-09
-2.28953e-09 0.0173712 -5.89295e-09
-2.03763e-09 0.0173712 -5.78187e-09
-2.34315e-09 0.0173712 -5.66282e-09
-2.18305e-09 0.0173712 -6.05066e-09
-2.29036e-09 0.0173712 -5.86162e-09
-2.12653e-09 0.0173712 -5.84578e-09
-2.06594e-09 0.0173712 -5.93438e-09
-1.95759e-09 0.0173712 -5.82225e-09
-1.96691e-09 0.0173712 -5.62354e-09
-2.39365e-09 0.0173712 -6.08823e-09
-2.12816e-09 0.0173712 -5.67653e-09
-2.01347e-09 0.0173712 -6.06863e-09
-1.72258e-09 0.0173712 -5.99983e-09
-1.73523e-09 0.0184886 -5.97226e-09
-1.27557e-09 0.0184886 -5.96246e-09
-1.13139e-09 0.0184886 -5.96102e-09
-1.06242e-09 0.0184886 -5.98691e-09
-1.02523e-09 0.0184886 -5.94703e-09
-1.06962e-09 0.0184886 -6.12355e-09
-1.2103e-09 0.0184886 -6.24117e-09
-1.07286e-09 0.0184886 -6.12024e-09
-1.14147e-09 0.0184886 -5.97841e-09
-8.74703e-10 0.0184886 -6.37319e-09
-1.23087e-09 0.0184886 -6.13816e-09
-1.19801e-09 0.0184886 -6.34254e-09
-1.10736e-09 0.0184886 -6.24647e-09
-1.10659e-09 0.0184886 -6.29764e-09
-7.42048e-10 0.0184886 -6.30382e-09
-1.28858e-09 0.0184886 -6.42043e-09
-1.20623e-09 0.0184886 -6.39156e-09
-1.05047e-09 0.0184886 -6.50607e-09
-8.10235e-10 0.0184886 -6.50235e-09
-7.87548e-10 0.0184886 -6.44476e-09
-9.20204e-10 0.0184886 -6.47807e-09
-1.03912e-09 0.0184886 -6.43731e-09
-9.72905e-10 0.0184886 -6.48532e-09
-1.08072e-09 0.0184886 -6.62022e-09
-6.079e-10 0.0184886 -6.58295e-09
-5.24584e-10 0.019635 -6.01944e-09
1.83764e-11 0.019635 -6.11848e-09
-1.43192e-11 0.019635 -6.04874e-09
-3.02869e-12 0.019635 -6.30119e-09
1.27184e-10 0.019635 -6.12781e-09
-3.34886e-10 0.019635 -5.94977e-09
-1.38566e-10 0.019635 -6.11836e-09
1.55567e-10 0.019635 -5.99893e-09
-1.1841e-10 0.019635 -6.20032e-09
1.36591e-10 0.019635 -6.23302e-09
-3.37781e-10 0.019635 -6.09579e-09
-7.15428e-11 0.019635 -6.12922e-09
-1.11005e-10 0.019635 -6.27376e-09
2.25002e-11 0.019635 -6.37415e-09
2.51068e-10 0.019635 -6.33463e-09
-9.31255e-11 0.019635 -6.2696e-09
-1.06812e-10 0.019635 -6.26111e-09
8.8872e-11 0.019635 -6.12911e-09
-4.11573e-11 0.019635 -6.45952e-09
5.78158e-10 0.019635 -6.49599e-09
-2.98845e-10 0.019635 -6.28546e-09
-9.35902e-11 0.019635 -6.18387e-09
1.44675e-10 0.019635 -6.40846e-09
1.01265e-10 0.019635 -6.58061e-09
2.60579e-10 0.019635 -6.70186e-09
7.80037e-10 0.0208506 -5.14343e-09
8.52369e-10 0.0208506 -5.19212e-09
1.0209e-09 0.0208506 -5.55562e-09
5.24523e-10 0.0208506 -5.38067e-09
7.21192e-10 0.0208506 -5.36154e-09
1.07885e-09 0.0208506 -5.44998e-09
8.60569e-10 0.0208506 -5.43052e-09
8.5603e-10 0.0208506 -5.60154e-09
7.18201e-10 0.0208506 -5.39274e-09
5.98234e-10 0.0208506 -5.72893e-09
1.02672e-09 0.0208506 -5.56545e-09
8.28505e-10 0.0208506 -5.51329e-09
9.50923e-10 0.0208506 -5.57332e-09
9.00448e-10 0.0208506 -5.78923e-09
8.55994e-10 0.0208506 -5.80967e-09
7.21151e-10 0.0208506 -5.63309e-09
9.5295e-10 0.0208506 -5.65898e-09
9.11609e-10 0.0208506 -5.54195e-09
8.79116e-10 0.0208506 -5.74365e-09
7.42098e-10 0.0208506 -5.77697e-09
6.84521e-10 0.0208506 -5.79361e-09
1.01179e-09 0.0208506 -5.58888e-09
9.26513e-10 0.0208506 -5.75091e-09
8.27063e-10 0.0208506 -6.06343e-09
1.1325e-09 0.0208506 -5.93256e-09
1.97891e-09 0.0221686 -4.46138e-09
1.54972e-09 0.0221686 -4.49026e-09
1.74049e-09 0.0221686 -4.48359e-09
1.00139e-09 0.0221686 -4.79262e-09
1.15116e-09 0.0221686 -4.11628e-09
1.81885e-09 0.0221686 -4.54736e-09
1.64636e-09 0.0221686 -4.49454e-09
1.72255e-09 0.0221686 -4.55072e-09
1.22931e-09 0.0221686 -4.51712e-09
1.19793e-09 0.0221686 -4.38807e-09
1.79245e-09 0.0221686 -4.41008e-09
1.7613e-09 0.0221686 -4.42326e-09
1.57351e-09 0.0221686 -4.5149e-09
1.41408e-09 0.0221686 -4.42362e-09
1.41212e-09 0.0221686 -4.61313e-09
1.91169e-09 0.0221686 -4.19612e-09
1.69241e-09 0.0221686 -4.29991e-09
1.6101e-09 0.0221686 -4.43263e-09
1.45585e-09 0.0221686 -4.72496e-09
1.54683e-09 0.0221686 -4.51359e-09
1.62245e-09 0.0221686 -4.0532e-09
1.55118e-09 0.0221686 -4.40988e-09
1.71776e-09 0.0221686 -4.48664e-09
1.50418e-09 0.0221686 -4.51299e-09
1.27053e-09 0.0221686 -4.55268e-09
2.59749e-09 0.0236054 -3.33524e-09
2.34246e-09 0.0236054 -3.19852e-09
1.75662e-09 0.0236054 -3.17663e-09
1.67019e-09 0.0236054 -3.13162e-09
7.97658e-10 0.0236054 -2.82503e-09
2.27928e-09 0.0236054 -2.99242e-09
2.39998e-09 0.0236054 -3.10411e-09
1.9811e-09 0.0236054 -3.09961e-09
1.66178e-09 0.0236054 -3.0862e-09
1.10639e-09 0.0236054 -3.07799e-09
2.97749e-09 0.0236054 -2.87386e-09
2.29075e-09 0.0236054 -2.8974e-09
2.18206e-09 0.0236054 -2.79158e-09
1.65313e-09 0.0236054 -2.90382e-09
1.97137e-09 0.0236054 -2.71977e-09
2.41921e-09 0.0236054 -2.70622e-09
2.47755e-09 0.0236054 -2.90049e-09
1.85895e-09 0.0236054 -2.73897e-09
1.73792e-09 0.0236054 -2.71719e-09
1.42026e-09 0.0236054 -2.80965e-09
3.06103e-09 0.0236054 -2.55828e-09
2.54092e-09 0.0236054 -2.2842e-09
2.23755e-09 0.0236054 -2.79591e-09
1.40638e-09 0.0236054 -2.62926e-09
1.62192e-09 0.0236054 -2.45003e-09
3.02448e-09 0.0251527 -1.14364e-09
2.47344e-09 0.0251527 -1.30771e-09
1.98344e-09 0.0251527 -1.39997e-09
1.70378e-09 0.0251527 -1.28848e-09
7.87198e-10 0.0251527 -1.40662e-09