<?xml version="1.0"?>
<VTKFile type="UnstructuredGrid" version="0.1" byte_order="LittleEndian">
<UnstructuredGrid>
<Piece NumberOfPoints="1025" NumberOfCells="640">
<Points>
<DataArray type="Float32" NumberOfComponents="3" format="ascii">
0 0 0
0.025 0 0
0.05 0 0
0.075 0 0
0.1 0 0
0 0.025 0
0.025 0.025 0
0.05 0.025 0
0.075 0.025 0
0.1 0.025 0
0 0.05 0
0.025 0.05 0
0.05 0.05 0
0.075 0.05 0
0.1 0.05 0
0 0.075 0
0.025 0.075 0
0.05 0.075 0
0.075 0.075 0
0.1 0.075 0
0 0.1 0
0.025 0.1 0
0.05 0.1 0
0.075 0.1 0
0.1 0.1 0
0 0 0.025
0.025 0 0.025
0.05 0 0.025
0.075 0 0.025
0.1 0 0.025
0 0.025 0.025
0.025 0.025 0.025
0.05 0.025 0.025
0.075 0.025 0.025
0.1 0.025 0.025
0 0.05 0.025
0.025 0.05 0.025
0.05 0.05 0.025
0.075 0.05 0.025
0.1 0.05 0.025
0 0.075 0.025
0.025 0.075 0.025
0.05 0.075 0.025
0.075 0.075 0.025
0.1 0.075 0.025
0 0.1 0.025
0.025 0.1 0.025
0.05 0.1 0.025
0.075 0.1 0.025
0.1 0.1 0.025
0 0 0.05
0.025 0 0.05
0.05 0 0.05
0.075 0 0.05
0.1 0 0.05
0 0.025 0.05
0.025 0.025 0.05
0.05 0.025 0.05
0.075 0.025 0.05
0.1 0.025 0.05
0 0.05 0.05
0.025 0.05 0.05
0.05 0.05 0.05
0.075 0.05 0.05
0.1 0.05 0.05
0 0.075 0.05
0.025 0.075 0.05
0.05 0.075 0.05
0.075 0.075 0.05
0.1 0.075 0.05
0 0.1 0.05
0.025 0.1 0.05
0.05 0.1 0.05
0.075 0.1 0.05
0.1 0.1 0.05
0 0 0.075
0.025 0 0.075
0.05 0 0.075
0.075 0 0.075
0.1 0 0.075
0 0.025 0.075
0.025 0.025 0.075
0.05 0.025 0.075
0.075 0.025 0.075
0.1 0.025 0.075
0 0.05 0.075
0.025 0.05 0.075
0.05 0.05 0.075
0.075 0.05 0.075
0.1 0.05 0.075
0 0.075 0.075
0.025 0.075 0.075
0.05 0.075 0.075
0.075 0.075 0.075
0.1 0.075 0.075
0 0.1 0.075
0.025 0.1 0.075
0.05 0.1 0.075
0.075 0.1 0.075
0.1 0.1 0.075
0 0 0.1
0.025 0 0.1
0.05 0 0.1
0.075 0 0.1
0.1 0 0.1
0 0.025 0.1
0.025 0.025 0.1
0.05 0.025 0.1
0.075 0.025 0.1
0.1 0.025 0.1
0 0.05 0.1
0.025 0.05 0.1
0.05 0.05 0.1
0.075 0.05 0.1
0.1 0.05 0.1
0 0.075 0.1
0.025 0.075 0.1
0.05 0.075 0.1
0.075 0.075 0.1
0.1 0.075 0.1
0 0.1 0.1
0.025 0.1 0.1
0.05 0.1 0.1
0.075 0.1 0.1
0.1 0.1 0.1
0 0 0.125
0.025 0 0.125
0.05 0 0.125
0.075 0 0.125
0.1 0 0.125
0 0.025 0.125
0.025 0.025 0.125
0.05 0.025 0.125
0.075 0.025 0.125
0.1 0.025 0.125
0 0.05 0.125
0.025 0.05 0.125
0.05 0.05 0.125
0.075 0.05 0.125
0.1 0.05 0.125
0 0.075 0.125
0.025 0.075 0.125
0.05 0.075 0.125
0.075 0.075 0.125
0.1 0.075 0.125
0 0.1 0.125
0.025 0.1 0.125
0.05 0.1 0.125
0.075 0.1 0.125
0.1 0.1 0.125
0 0 0.15
0.025 0 0.15
0.05 0 0.15
0.075 0 0.15
0.1 0 0.15
0 0.025 0.15
0.025 0.025 0.15
0.05 0.025 0.15
0.075 0.025 0.15
0.1 0.025 0.15
0 0.05 0.15
0.025 0.05 0.15
0.05 0.05 0.15
0.075 0.05 0.15
0.1 0.05 0.15
0 0.075 0.15
0.025 0.075 0.15
0.05 0.075 0.15
0.075 0.075 0.15
0.1 0.075 0.15
0 0.1 0.15
0.025 0.1 0.15
0.05 0.1 0.15
0.075 0.1 0.15
0.1 0.1 0.15
0 0 0.175
0.025 0 0.175
0.05 0 0.175
0.075 0 0.175
0.1 0 0.175
0 0.025 0.175
0.025 0.025 0.175
0.05 0.025 0.175
0.075 0.025 0.175
0.1 0.025 0.175
0 0.05 0.175
0.025 0.05 0.175
0.05 0.05 0.175
0.075 0.05 0.175
0.1 0.05 0.175
0 0.075 0.175
0.025 0.075 0.175
0.05 0.075 0.175
0.075 0.075 0.175
0.1 0.075 0.175
0 0.1 0.175
0.025 0.1 0.175
0.05 0.1 0.175
0.075 0.1 0.175
0.1 0.1 0.175
0 0 0.2
0.025 0 0.2
0.05 0 0.2
0.075 0 0.2
0.1 0 0.2
0 0.025 0.2
0.025 0.025 0.2
0.05 0.025 0.2
0.075 0.025 0.2
0.1 0.025 0.2
0 0.05 0.2
0.025 0.05 0.2
0.05 0.05 0.2
0.075 0.05 0.2
0.1 0.05 0.2
0 0.075 0.2
0.025 0.075 0.2
0.05 0.075 0.2
0.075 0.075 0.2
0.1 0.075 0.2
0 0.1 0.2
0.025 0.1 0.2
0.05 0.1 0.2
0.075 0.1 0.2
0.1 0.1 0.2
0 0 0.225
0.025 0 0.225
0.05 0 0.225
0.075 0 0.225
0.1 0 0.225
0 0.025 0.225
0.025 0.025 0.225
0.05 0.025 0.225
0.075 0.025 0.225
0.1 0.025 0.225
0 0.05 0.225
0.025 0.05 0.225
0.05 0.05 0.225
0.075 0.05 0.225
0.1 0.05 0.225
0 0.075 0.225
0.025 0.075 0.225
0.05 0.075 0.225
0.075 0.075 0.225
0.1 0.075 0.225
0 0.1 0.225
0.025 0.1 0.225
0.05 0.1 0.225
0.075 0.1 0.225
0.1 0.1 0.225
0 0 0.25
0.025 0 0.25
0.05 0 0.25
0.075 0 0.25
0.1 0 0.25
0 0.025 0.25
0.025 0.025 0.25
0.05 0.025 0.25
0.075 0.025 0.25
0.1 0.025 0.25
0 0.05 0.25
0.025 0.05 0.25
0.05 0.05 0.25
0.075 0.05 0.25
0.1 0.05 0.25
0 0.075 0.25
0.025 0.075 0.25
0.05 0.075 0.25
0.075 0.075 0.25
0.1 0.075 0.25
0 0.1 0.25
0.025 0.1 0.25
0.05 0.1 0.25
0.075 0.1 0.25
0.1 0.1 0.25
0 0 0.275
0.025 0 0.275
0.05 0 0.275
0.075 0 0.275
0.1 0 0.275
0 0.025 0.275
0.025 0.025 0.275
0.05 0.025 0.275
0.075 0.025 0.275
0.1 0.025 0.275
0 0.05 0.275
0.025 0.05 0.275
0.05 0.05 0.275
0.075 0.05 0.275
0.1 0.05 0.275
0 0.075 0.275
0.025 0.075 0.275
0.05 0.075 0.275
0.075 0.075 0.275
0.1 0.075 0.275
0 0.1 0.275
0.025 0.1 0.275
0.05 0.1 0.275
0.075 0.1 0.275
0.1 0.1 0.275
0 0 0.3
0.025 0 0.3
0.05 0 0.3
0.075 0 0.3
0.1 0 0.3
0 0.025 0.3
0.025 0.025 0.3
0.05 0.025 0.3
0.075 0.025 0.3
0.1 0.025 0.3
0 0.05 0.3
0.025 0.05 0.3
0.05 0.05 0.3
0.075 0.05 0.3
0.1 0.05 0.3
0 0.075 0.3
0.025 0.075 0.3
0.05 0.075 0.3
0.075 0.075 0.3
0.1 0.075 0.3
0 0.1 0.3
0.025 0.1 0.3
0.05 0.1 0.3
0.075 0.1 0.3
0.1 0.1 0.3
0 0 0.325
0.025 0 0.325
0.05 0 0.325
0.075 0 0.325
0.1 0 0.325
0 0.025 0.325
0.025 0.025 0.325
0.05 0.025 0.325
0.075 0.025 0.325
0.1 0.025 0.325
0 0.05 0.325
0.025 0.05 0.325
0.05 0.05 0.325
0.075 0.05 0.325
0.1 0.05 0.325
0 0.075 0.325
0.025 0.075 0.325
0.05 0.075 0.325
0.075 0.075 0.325
0.1 0.075 0.325
0 0.1 0.325
0.025 0.1 0.325
0.05 0.1 0.325
0.075 0.1 0.325
0.1 0.1 0.325
0 0 0.35
0.025 0 0.35
0.05 0 0.35
0.075 0 0.35
0.1 0 0.35
0 0.025 0.35
0.025 0.025 0.35
0.05 0.025 0.35
0.075 0.025 0.35
0.1 0.025 0.35
0 0.05 0.35
0.025 0.05 0.35
0.05 0.05 0.35
0.075 0.05 0.35
0.1 0.05 0.35
0 0.075 0.35
0.025 0.075 0.35
0.05 0.075 0.35
0.075 0.075 0.35
0.1 0.075 0.35
0 0.1 0.35
0.025 0.1 0.35
0.05 0.1 0.35
0.075 0.1 0.35
0.1 0.1 0.35
0 0 0.375
0.025 0 0.375
0.05 0 0.375
0.075 0 0.375
0.1 0 0.375
0 0.025 0.375
0.025 0.025 0.375
0.05 0.025 0.375
0.075 0.025 0.375
0.1 0.025 0.375
0 0.05 0.375
0.025 0.05 0.375
0.05 0.05 0.375
0.075 0.05 0.375
0.1 0.05 0.375
0 0.075 0.375
0.025 0.075 0.375
0.05 0.075 0.375
0.075 0.075 0.375
0.1 0.075 0.375
0 0.1 0.375
0.025 0.1 0.375
0.05 0.1 0.375
0.075 0.1 0.375
0.1 0.1 0.375
0 0 0.4
0.025 0 0.4
0.05 0 0.4
0.075 0 0.4
0.1 0 0.4
0 0.025 0.4
0.025 0.025 0.4
0.05 0.025 0.4
0.075 0.025 0.4
0.1 0.025 0.4
0 0.05 0.4
0.025 0.05 0.4
0.05 0.05 0.4
0.075 0.05 0.4
0.1 0.05 0.4
0 0.075 0.4
0.025 0.075 0.4
0.05 0.075 0.4
0.075 0.075 0.4
0.1 0.075 0.4
0 0.1 0.4
0.025 0.1 0.4
0.05 0.1 0.4
0.075 0.1 0.4
0.1 0.1 0.4
0 0 0.425
0.025 0 0.425
0.05 0 0.425
0.075 0 0.425
0.1 0 0.425
0 0.025 0.425
0.025 0.025 0.425
0.05 0.025 0.425
0.075 0.025 0.425
0.1 0.025 0.425
0 0.05 0.425
0.025 0.05 0.425
0.05 0.05 0.425
0.075 0.05 0.425
0.1 0.05 0.425
0 0.075 0.425
0.025 0.075 0.425
0.05 0.075 0.425
0.075 0.075 0.425
0.1 0.075 0.425
0 0.1 0.425
0.025 0.1 0.425
0.05 0.1 0.425
0.075 0.1 0.425
0.1 0.1 0.425
0 0 0.45
0.025 0 0.45
0.05 0 0.45
0.075 0 0.45
0.1 0 0.45
0 0.025 0.45
0.025 0.025 0.45
0.05 0.025 0.45
0.075 0.025 0.45
0.1 0.025 0.45
0 0.05 0.45
0.025 0.05 0.45
0.05 0.05 0.45
0.075 0.05 0.45
0.1 0.05 0.45
0 0.075 0.45
0.025 0.075 0.45
0.05 0.075 0.45
0.075 0.075 0.45
0.1 0.075 0.45
0 0.1 0.45
0.025 0.1 0.45
0.05 0.1 0.45
0.075 0.1 0.45
0.1 0.1 0.45
0 0 0.475
0.025 0 0.475
0.05 0 0.475
0.075 0 0.475
0.1 0 0.475
0 0.025 0.475
0.025 0.025 0.475
0.05 0.025 0.475
0.075 0.025 0.475
0.1 0.025 0.475
0 0.05 0.475
0.025 0.05 0.475
0.05 0.05 0.475
0.075 0.05 0.475
0.1 0.05 0.475
0 0.075 0.475
0.025 0.075 0.475
0.05 0.075 0.475
0.075 0.075 0.475
0.1 0.075 0.475
0 0.1 0.475
0.025 0.1 0.475
0.05 0.1 0.475
0.075 0.1 0.475
0.1 0.1 0.475
0 0 0.5
0.025 0 0.5
0.05 0 0.5
0.075 0 0.5
0.1 0 0.5
0 0.025 0.5
0.025 0.025 0.5
0.05 0.025 0.5
0.075 0.025 0.5
0.1 0.025 0.5
0 0.05 0.5
0.025 0.05 0.5
0.05 0.05 0.5
0.075 0.05 0.5
0.1 0.05 0.5
0 0.075 0.5
0.025 0.075 0.5
0.05 0.075 0.5
0.075 0.075 0.5
0.1 0.075 0.5
0 0.1 0.5
0.025 0.1 0.5
0.05 0.1 0.5
0.075 0.1 0.5
0.1 0.1 0.5
0 0 0.525
0.025 0 0.525
0.05 0 0.525
0.075 0 0.525
0.1 0 0.525
0 0.025 0.525
0.025 0.025 0.525
0.05 0.025 0.525
0.075 0.025 0.525
0.1 0.025 0.525
0 0.05 0.525
0.025 0.05 0.525
0.05 0.05 0.525
0.075 0.05 0.525
0.1 0.05 0.525
0 0.075 0.525
0.025 0.075 0.525
0.05 0.075 0.525
0.075 0.075 0.525
0.1 0.075 0.525
0 0.1 0.525
0.025 0.1 0.525
0.05 0.1 0.525
0.075 0.1 0.525
0.1 0.1 0.525
0 0 0.55
0.025 0 0.55
0.05 0 0.55
0.075 0 0.55
0.1 0 0.55
0 0.025 0.55
0.025 0.025 0.55
0.05 0.025 0.55
0.075 0.025 0.55
0.1 0.025 0.55
0 0.05 0.55
0.025 0.05 0.55
0.05 0.05 0.55
0.075 0.05 0.55
0.1 0.05 0.55
0 0.075 0.55
0.025 0.075 0.55
0.05 0.075 0.55
0.075 0.075 0.55
0.1 0.075 0.55
0 0.1 0.55
0.025 0.1 0.55
0.05 0.1 0.55
0.075 0.1 0.55
0.1 0.1 0.55
0 0 0.575
0.025 0 0.575
0.05 0 0.575
0.075 0 0.575
0.1 0 0.575
0 0.025 0.575
0.025 0.025 0.575
0.05 0.025 0.575
0.075 0.025 0.575
0.1 0.025 0.575
0 0.05 0.575
0.025 0.05 0.575
0.05 0.05 0.575
0.075 0.05 0.575
0.1 0.05 0.575
0 0.075 0.575
0.025 0.075 0.575
0.05 0.075 0.575
0.075 0.075 0.575
0.1 0.075 0.575
0 0.1 0.575
0.025 0.1 0.575
0.05 0.1 0.575
0.075 0.1 0.575
0.1 0.1 0.575
0 0 0.6
0.025 0 0.6
0.05 0 0.6
0.075 0 0.6
0.1 0 0.6
0 0.025 0.6
0.025 0.025 0.6
0.05 0.025 0.6
0.075 0.025 0.6
0.1 0.025 0.6
0 0.05 0.6
0.025 0.05 0.6
0.05 0.05 0.6
0.075 0.05 0.6
0.1 0.05 0.6
0 0.075 0.6
0.025 0.075 0.6
0.05 0.075 0.6
0.075 0.075 0.6
0.1 0.075 0.6
0 0.1 0.6
0.025 0.1 0.6
0.05 0.1 0.6
0.075 0.1 0.6
0.1 0.1 0.6
0 0 0.625
0.025 0 0.625
0.05 0 0.625
0.075 0 0.625
0.1 0 0.625
0 0.025 0.625
0.025 0.025 0.625
0.05 0.025 0.625
0.075 0.025 0.625
0.1 0.025 0.625
0 0.05 0.625
0.025 0.05 0.625
0.05 0.05 0.625
0.075 0.05 0.625
0.1 0.05 0.625
0 0.075 0.625
0.025 0.075 0.625
0.05 0.075 0.625
0.075 0.075 0.625
0.1 0.075 0.625
0 0.1 0.625
0.025 0.1 0.625
0.05 0.1 0.625
0.075 0.1 0.625
0.1 0.1 0.625
0 0 0.65
0.025 0 0.65
0.05 0 0.65
0.075 0 0.65
0.1 0 0.65
0 0.025 0.65
0.025 0.025 0.65
0.05 0.025 0.65
0.075 0.025 0.65
0.1 0.025 0.65
0 0.05 0.65
0.025 0.05 0.65
0.05 0.05 0.65
0.075 0.05 0.65
0.1 0.05 0.65
0 0.075 0.65
0.025 0.075 0.65
0.05 0.075 0.65
0.075 0.075 0.65
0.1 0.075 0.65
0 0.1 0.65
0.025 0.1 0.65
0.05 0.1 0.65
0.075 0.1 0.65
0.1 0.1 0.65
0 0 0.675
0.025 0 0.675
0.05 0 0.675
0.075 0 0.675
0.1 0 0.675
[...]
<PointData Vectors="Displacement">
<DataArray type="Float32" Name="Displacement" NumberOfComponents="3" format="ascii">
0 0 0
0 0 0
0 0 0
0 0 0
0 0 0
0 0 0
0 0 0
0 0 0
0 0 0
0 0 0
0 0 0
0 0 0
0 0 0
0 0 0
0 0 0
0 0 0
0 0 0
0 0 0
0 0 0
0 0 0
0 0 0
0 0 0
0 0 0
0 0 0
0 0 0
-1.2881e-11 0.0012266 1.05821e-09
-2.16577e-10 0.0012266 1.04188e-09
-3.43508e-10 0.0012266 1.02684e-09
-4.51031e-10 0.0012266 1.05305e-09
-6.32457e-10 0.0012266 1.03916e-09
-2.08004e-11 0.0012266 1.05022e-09
-2.22786e-10 0.0012266 1.04058e-09
-3.37385e-10 0.0012266 1.03745e-09
-4.49572e-10 0.0012266 1.03689e-09
-6.04905e-10 0.0012266 1.03589e-09
-2.48068e-11 0.0012266 1.05794e-09
-2.18272e-10 0.0012266 1.03362e-09
-3.35876e-10 0.0012266 1.02791e-09
-4.39287e-10 0.00122659 1.04152e-09
-6.51465e-10 0.00122659 1.03295e-09
-3.30019e-12 0.0012266 1.04639e-09
-2.19492e-10 0.00122659 1.02941e-09
-3.23372e-10 0.00122659 1.05062e-09
-4.49023e-10 0.00122659 1.04376e-09
-6.45275e-10 0.00122659 1.04469e-09
1.7884e-11 0.00122659 1.05711e-09
-1.96776e-10 0.00122659 1.05714e-09
-3.32898e-10 0.00122659 1.03592e-09
-4.62107e-10 0.00122659 1.04584e-09
-6.66064e-10 0.00122659 1.06376e-09
-3.39763e-10 0.00245333 2.09865e-09
-5.03576e-10 0.00245333 2.12804e-09
-6.5387e-10 0.00245333 2.15228e-09
-8.54237e-10 0.00245333 2.10503e-09
-9.90668e-10 0.00245333 2.09948e-09
-2.86023e-10 0.00245333 2.13578e-09
-4.72736e-10 0.00245333 2.13516e-09
-6.64221e-10 0.00245333 2.13487e-09
-8.29902e-10 0.00245333 2.11462e-09
-1.02832e-09 0.00245333 2.12359e-09
-3.19832e-10 0.00245333 2.13104e-09
-4.8662e-10 0.00245333 2.14046e-09
-6.59676e-10 0.00245333 2.10459e-09
-8.55619e-10 0.00245333 2.11878e-09
-9.61635e-10 0.00245333 2.14521e-09
-2.51706e-10 0.00245333 2.13991e-09
-4.95072e-10 0.00245333 2.11773e-09
-6.44327e-10 0.00245333 2.13432e-09
-8.57713e-10 0.00245333 2.12138e-09
-1.00724e-09 0.00245333 2.11259e-09
-2.15587e-10 0.00245333 2.10489e-09
-4.69201e-10 0.00245333 2.11323e-09
-6.63256e-10 0.00245333 2.14066e-09
-8.53558e-10 0.00245333 2.14858e-09
-1.10483e-09 0.00245333 2.126e-09
-6.34093e-10 0.00368036 3.27076e-09
-7.69343e-10 0.00368036 3.21489e-09
-9.8258e-10 0.00368036 3.2124e-09
-1.2095e-09 0.00368036 3.27441e-09
-1.31044e-09 0.00368036 3.23142e-09
-6.25177e-10 0.00368036 3.21928e-09
-7.84291e-10 0.00368036 3.21354e-09
-9.80003e-10 0.00368036 3.23843e-09
-1.18032e-09 0.00368036 3.23877e-09
-1.29796e-09 0.00368036 3.23312e-09
-5.86038e-10 0.00368036 3.22364e-09
-8.06494e-10 0.00368036 3.2173e-09
-9.82329e-10 0.00368036 3.23422e-09
-1.17374e-09 0.00368035 3.20995e-09
-1.32715e-09 0.00368036 3.2047e-09
-5.54253e-10 0.00368036 3.21111e-09
-7.829e-10 0.00368036 3.21279e-09
-9.81857e-10 0.00368035 3.22653e-09
-1.16528e-09 0.00368035 3.22566e-09
-1.38743e-09 0.00368035 3.22359e-09
-5.67639e-10 0.00368036 3.18531e-09
-7.50711e-10 0.00368036 3.21518e-09
-9.53208e-10 0.00368036 3.21614e-09
-1.20693e-09 0.00368035 3.20887e-09
-1.38126e-09 0.00368035 3.18794e-09
-8.09606e-10 0.0049078 4.3171e-09
-1.0941e-09 0.0049078 4.31088e-09
-1.22229e-09 0.0049078 4.2863e-09
-1.4969e-09 0.0049078 4.25513e-09
-1.61315e-09 0.0049078 4.26153e-09
-9.74427e-10 0.0049078 4.31798e-09
-1.09254e-09 0.0049078 4.30368e-09
-1.27269e-09 0.0049078 4.28971e-09
-1.48735e-09 0.0049078 4.27563e-09
-1.61226e-09 0.0049078 4.27428e-09
-9.04583e-10 0.0049078 4.28164e-09
-1.08344e-09 0.0049078 4.29385e-09
-1.24726e-09 0.0049078 4.27137e-09
-1.45214e-09 0.0049078 4.30623e-09
-1.5957e-09 0.0049078 4.28335e-09
-8.39379e-10 0.0049078 4.24762e-09
-1.10553e-09 0.0049078 4.2724e-09
-1.27254e-09 0.0049078 4.27064e-09
-1.48355e-09 0.0049078 4.271e-09
-1.64694e-09 0.0049078 4.2885e-09
-8.6429e-10 0.0049078 4.28662e-09
-1.08512e-09 0.0049078 4.25809e-09
-1.26474e-09 0.0049078 4.18221e-09
-1.43159e-09 0.0049078 4.2876e-09
-1.62937e-09 0.0049078 4.28806e-09
-1.41777e-09 0.00613581 5.31614e-09
-1.38763e-09 0.00613581 5.30106e-09
-1.54418e-09 0.00613581 5.24676e-09
-1.73808e-09 0.00613581 5.22122e-09
-1.91235e-09 0.00613581 5.26496e-09
-1.1809e-09 0.00613581 5.38133e-09
-1.433e-09 0.00613581 5.32889e-09
-1.53733e-09 0.00613581 5.28651e-09
-1.74468e-09 0.00613581 5.29336e-09
-1.8168e-09 0.00613581 5.31109e-09
-1.28356e-09 0.00613581 5.29616e-09
-1.40012e-09 0.00613581 5.38859e-09
-1.531e-09 0.00613581 5.32565e-09
-1.76943e-09 0.00613581 5.36191e-09
-1.80321e-09 0.00613581 5.3872e-09
-1.22005e-09 0.00613581 5.36719e-09
-1.35833e-09 0.00613581 5.33633e-09
-1.51146e-09 0.00613581 5.42801e-09
-1.72724e-09 0.00613581 5.38341e-09
-1.8826e-09 0.00613581 5.37743e-09
-1.0738e-09 0.00613581 5.30055e-09
-1.40274e-09 0.00613581 5.39199e-09
-1.51121e-09 0.00613581 5.40407e-09
-1.72313e-09 0.00613581 5.33923e-09
-1.91572e-09 0.00613581 5.43713e-09
-1.59368e-09 0.00736452 6.34679e-09
-1.85534e-09 0.00736452 6.37865e-09
-1.75006e-09 0.00736452 6.28774e-09
-1.99472e-09 0.00736452 6.34273e-09
-1.91828e-09 0.00736452 6.37767e-09
-1.71915e-09 0.00736452 6.32868e-09
-1.76658e-09 0.00736452 6.37108e-09
-1.81036e-09 0.00736452 6.34171e-09
-1.91935e-09 0.00736452 6.33658e-09
-2.04455e-09 0.00736452 6.36251e-09
-1.62153e-09 0.00736452 6.42666e-09
-1.7165e-09 0.00736452 6.38901e-09
-1.82535e-09 0.00736452 6.35274e-09
-1.91688e-09 0.00736452 6.36992e-09
-2.15542e-09 0.00736452 6.33857e-09
-1.59674e-09 0.00736452 6.43555e-09
-1.67192e-09 0.00736452 6.46913e-09
-1.77277e-09 0.00736452 6.46516e-09
-1.97159e-09 0.00736452 6.43285e-09
-2.14324e-09 0.00736452 6.44737e-09
-1.5889e-09 0.00736452 6.45674e-09
-1.61607e-09 0.00736452 6.38226e-09
-1.77993e-09 0.00736452 6.51368e-09
-2.09331e-09 0.00736452 6.57811e-09
-2.09658e-09 0.00736452 6.37897e-09
-1.95464e-09 0.00859405 7.38017e-09
-2.08208e-09 0.00859405 7.29728e-09
-2.07798e-09 0.00859405 7.37926e-09
-2.00003e-09 0.00859405 7.21934e-09
-2.21825e-09 0.00859405 7.36864e-09
-2.03333e-09 0.00859405 7.37139e-09
-2.05914e-09 0.00859405 7.29243e-09
-2.08366e-09 0.00859405 7.37469e-09
-2.13256e-09 0.00859405 7.36494e-09
-2.23548e-09 0.00859405 7.31049e-09
-1.91533e-09 0.00859405 7.45018e-09
-1.99333e-09 0.00859405 7.43524e-09
-2.07082e-09 0.00859405 7.40482e-09
-2.15583e-09 0.00859405 7.41921e-09
-2.27418e-09 0.00859405 7.32977e-09
-1.87233e-09 0.00859405 7.52166e-09
-1.93268e-09 0.00859405 7.47011e-09
-2.05955e-09 0.00859405 7.39642e-09
-2.1891e-09 0.00859405 7.38758e-09
-2.35513e-09 0.00859405 7.38665e-09
-1.90299e-09 0.00859405 7.46379e-09
-1.90238e-09 0.00859405 7.50258e-09
-2.06842e-09 0.00859405 7.44646e-09
-2.20477e-09 0.00859405 7.58739e-09
-2.41332e-09 0.00859405 7.45549e-09
-2.15598e-09 0.00982454 8.08558e-09
-2.41376e-09 0.00982454 8.26158e-09
-2.30008e-09 0.00982454 8.27526e-09
-2.43518e-09 0.00982454 8.29694e-09
-2.20564e-09 0.00982454 8.33992e-09
-2.25746e-09 0.00982454 8.33001e-09
-2.26549e-09 0.00982454 8.34104e-09
-2.27559e-09 0.00982454 8.31793e-09
-2.42335e-09 0.00982454 8.3471e-09
-2.25647e-09 0.00982454 8.30941e-09
-2.18856e-09 0.00982454 8.31283e-09
-2.21567e-09 0.00982454 8.3654e-09
-2.233e-09 0.00982454 8.30211e-09
-2.52553e-09 0.00982454 8.31479e-09
-2.3419e-09 0.00982454 8.35386e-09
-2.08071e-09 0.00982454 8.44708e-09
-2.14021e-09 0.00982454 8.33083e-09
-2.28859e-09 0.00982454 8.45756e-09
-2.45585e-09 0.00982454 8.43019e-09
-2.60704e-09 0.00982454 8.32859e-09
-1.79514e-09 0.00982454 8.31843e-09
-2.33276e-09 0.00982454 8.48515e-09
-2.29262e-09 0.00982454 8.283e-09
-2.46014e-09 0.00982454 8.29973e-09
-2.48409e-09 0.00982454 8.36814e-09
-2.29477e-09 0.0110561 9.06595e-09
-2.30106e-09 0.0110561 8.92015e-09
-2.38461e-09 0.0110561 9.0039e-09
-2.49916e-09 0.0110561 9.14354e-09
-2.67192e-09 0.0110561 9.04533e-09
-2.27664e-09 0.0110561 9.00367e-09
-2.45789e-09 0.0110561 9.04336e-09
-2.44704e-09 0.0110561 9.07045e-09
-2.52264e-09 0.0110561 9.05938e-09
-2.54613e-09 0.0110561 9.14888e-09
-2.32253e-09 0.0110561 9.16458e-09
-2.36589e-09 0.0110561 9.17812e-09
-2.47283e-09 0.0110561 9.1016e-09
-2.52096e-09 0.0110561 9.177e-09
-2.63855e-09 0.0110561 9.27872e-09
-2.27439e-09 0.0110561 9.04409e-09
-2.32718e-09 0.0110561 9.25408e-09
-2.34879e-09 0.0110561 9.27788e-09
-2.54272e-09 0.0110561 9.30991e-09
-2.75896e-09 0.0110561 9.2411e-09
-2.19225e-09 0.0110561 9.0405e-09
-2.22455e-09 0.0110561 9.18345e-09
-2.49978e-09 0.0110561 9.40373e-09
-2.79402e-09 0.0110561 9.24077e-09
-2.83286e-09 0.0110561 9.32283e-09
-2.76524e-09 0.0122888 9.91901e-09
-2.68981e-09 0.0122888 9.79156e-09
-2.55743e-09 0.0122888 9.59024e-09
-2.54795e-09 0.0122888 9.67098e-09
-2.48446e-09 0.0122888 9.9533e-09
-2.74141e-09 0.0122888 9.88261e-09
-2.63718e-09 0.0122888 9.80345e-09
-2.5558e-09 0.0122888 9.70298e-09
-2.61607e-09 0.0122888 9.84827e-09
-2.41294e-09 0.0122888 9.81783e-09
-2.67919e-09 0.0122888 9.82756e-09
-2.60699e-09 0.0122888 9.96161e-09
-2.60453e-09 0.0122888 9.91007e-09
-2.65768e-09 0.0122888 9.83667e-09
-2.45876e-09 0.0122888 9.83355e-09
-2.5324e-09 0.0122888 9.86362e-09
-2.52154e-09 0.0122888 9.88092e-09
-2.61501e-09 0.0122888 1.00433e-08
-2.73857e-09 0.0122888 9.88821e-09
-2.85914e-09 0.0122888 9.92828e-09
-2.8267e-09 0.0122888 9.87183e-09
-2.25528e-09 0.0122888 9.77349e-09
-2.484e-09 0.0122888 9.92934e-09
-2.84236e-09 0.0122888 1.02135e-08
-2.74205e-09 0.0122888 9.97465e-09
-2.62794e-09 0.0135229 1.07321e-08
-2.91405e-09 0.0135229 1.05773e-08
-2.52685e-09 0.0135229 1.05588e-08
-2.52319e-09 0.0135229 1.07494e-08
-2.5601e-09 0.0135229 1.07406e-08
-2.92306e-09 0.0135229 1.07512e-08
-2.84239e-09 0.0135229 1.06531e-08
-2.6896e-09 0.0135229 1.05384e-08
-2.54272e-09 0.0135229 1.053e-08
-2.65188e-09 0.0135229 1.05812e-08
-2.8382e-09 0.0135229 1.0601e-08
-2.69976e-09 0.0135229 1.05799e-08
-2.80741e-09 0.0135229 1.05701e-08
-2.82326e-09 0.0135229 1.05112e-08
-2.41117e-09 0.0135229 1.06163e-08
-2.87477e-09 0.0135229 1.06706e-08
-2.71563e-09 0.0135229 1.0611e-08
-2.71941e-09 0.0135229 1.04664e-08
-2.77983e-09 0.0135229 1.06341e-08
-2.7056e-09 0.0135229 1.05672e-08
-2.81972e-09 0.0135229 1.07473e-08
-2.70973e-09 0.0135229 1.05922e-08
-2.6175e-09 0.0135229 1.04617e-08
-2.49938e-09 0.0135229 1.04899e-08
-3.10704e-09 0.0135229 1.06298e-08
-2.79036e-09 0.0147583 1.13941e-08
-2.83483e-09 0.0147583 1.13687e-08
-2.69907e-09 0.0147583 1.17012e-08
-2.62313e-09 0.0147583 1.09883e-08
-2.85208e-09 0.0147583 1.09951e-08
-2.69511e-09 0.0147583 1.12338e-08
-2.88022e-09 0.0147583 1.13144e-08
-2.80545e-09 0.0147583 1.12985e-08
-2.77992e-09 0.0147583 1.11939e-08
-2.73967e-09 0.0147583 1.11183e-08
-2.95464e-09 0.0147583 1.11932e-08
-2.91622e-09 0.0147583 1.11105e-08
-2.73296e-09 0.0147583 1.11227e-08
-2.83677e-09 0.0147583 1.12649e-08
-2.56333e-09 0.0147583 1.12006e-08
-2.97803e-09 0.0147583 1.12739e-08
-2.87664e-09 0.0147583 1.12924e-08
-2.74676e-09 0.0147583 1.1267e-08
-2.79866e-09 0.0147583 1.09424e-08
-2.84428e-09 0.0147583 1.11272e-08
-2.78032e-09 0.0147583 1.12632e-08
-2.91604e-09 0.0147583 1.13602e-08
-2.8095e-09 0.0147583 1.10342e-08
-2.74967e-09 0.0147583 1.07422e-08
-2.95815e-09 0.0147583 1.10303e-08
-2.9438e-09 0.0159952 1.17196e-08
-2.83059e-09 0.0159952 1.17802e-08
-2.89289e-09 0.0159952 1.17756e-08
-2.89639e-09 0.0159952 1.13273e-08
-2.32001e-09 0.0159952 1.14701e-08
-2.95901e-09 0.0159952 1.17365e-08
-3.00044e-09 0.0159952 1.16451e-08
-2.77864e-09 0.0159952 1.16441e-08
-2.66335e-09 0.0159952 1.16464e-08
-2.74864e-09 0.0159952 1.14333e-08
-3.15262e-09 0.0159952 1.16248e-08
-2.89068e-09 0.0159952 1.17262e-08
-2.68621e-09 0.0159952 1.17455e-08
-2.67726e-09 0.0159952 1.1609e-08
-3.08922e-09 0.0159952 1.16012e-08
-3.0364e-09 0.0159952 1.18426e-08
-2.85966e-09 0.0159952 1.16738e-08
-2.77463e-09 0.0159952 1.17691e-08
-2.85205e-09 0.0159952 1.15601e-08
-2.53908e-09 0.0159952 1.15009e-08
-3.01387e-09 0.0159952 1.1942e-08
-2.79994e-09 0.0159952 1.18245e-08
-2.90172e-09 0.0159952 1.19258e-08
-2.72084e-09 0.0159952 1.18193e-08
-2.30539e-09 0.0159952 1.1492e-08
-3.01216e-09 0.0172337 1.20589e-08
-2.91756e-09 0.0172337 1.19461e-08
-2.71969e-09 0.0172337 1.16554e-08
-2.78091e-09 0.0172337 1.1635e-08
-2.6651e-09 0.0172337 1.19065e-08
-2.99475e-09 0.0172337 1.19714e-08
-2.85889e-09 0.0172337 1.19356e-08
-2.78003e-09 0.0172337 1.19438e-08
-2.74269e-09 0.0172337 1.17554e-08
-2.63841e-09 0.0172337 1.17615e-08
-3.13255e-09 0.0172337 1.20496e-08
-2.88805e-09 0.0172337 1.20436e-08
-2.65707e-09 0.0172337 1.20066e-08
-2.7025e-09 0.0172337 1.18455e-08
-2.78696e-09 0.0172337 1.18043e-08
-3.11246e-09 0.0172337 1.2172e-08
-2.88092e-09 0.0172337 1.21838e-08
-2.63326e-09 0.0172337 1.2141e-08
-2.78694e-09 0.0172337 1.1994e-08
-2.83598e-09 0.0172337 1.1907e-08
-3.0425e-09 0.0172337 1.25565e-08
-2.97495e-09 0.0172337 1.21076e-08
-2.83844e-09 0.0172337 1.22716e-08
-2.733e-09 0.0172337 1.24091e-08
-2.62271e-09 0.0172337 1.20853e-08
-3.05706e-09 0.0184738 1.19373e-08
-2.98371e-09 0.0184738 1.20035e-08
-2.68235e-09 0.0184738 1.18114e-08
-2.48174e-09 0.0184738 1.17021e-08
-2.52691e-09 0.0184738 1.18831e-08
-2.86963e-09 0.0184738 1.19521e-08
-2.89099e-09 0.0184738 1.20631e-08
-2.60912e-09 0.0184738 1.18708e-08
-2.61649e-09 0.0184738 1.1858e-08
-2.43e-09 0.0184738 1.17472e-08
-3.02705e-09 0.0184738 1.21884e-08
-2.836e-09 0.0184738 1.2057e-08
-2.65995e-09 0.0184738 1.21587e-08
-2.6477e-09 0.0184738 1.18211e-08
-2.58542e-09 0.0184738 1.16844e-08
-2.75492e-09 0.0184738 1.22524e-08
-2.986e-09 0.0184738 1.24162e-08
-2.70321e-09 0.0184738 1.22095e-08
-2.62396e-09 0.0184738 1.20416e-08
-2.47432e-09 0.0184738 1.20498e-08
-2.81633e-09 0.0184738 1.2205e-08
-2.94327e-09 0.0184738 1.23521e-08
-2.73862e-09 0.0184738 1.22537e-08
-2.70567e-09 0.0184738 1.20278e-08
-2.48466e-09 0.0184738 1.20936e-08
-3.33972e-09 0.0197156 1.16934e-08
-2.62317e-09 0.0197156 1.21086e-08
-2.43411e-09 0.0197156 1.19567e-08
-2.42655e-09 0.0197156 1.18263e-08
-1.97218e-09 0.0197156 1.17913e-08
-3.29187e-09 0.0197156 1.19338e-08
-2.6724e-09 0.0197156 1.18871e-08
-2.49965e-09 0.0197156 1.18449e-08
-2.45529e-09 0.0197156 1.17022e-08
-2.28456e-09 0.0197156 1.18881e-08
-2.82177e-09 0.0197156 1.20573e-08
-2.81116e-09 0.0197156 1.20903e-08
-2.56223e-09 0.0197156 1.20164e-08
-2.54403e-09 0.0197156 1.19152e-08
-2.23638e-09 0.0197156 1.18719e-08
-2.93038e-09 0.0197156 1.19881e-08
-2.92779e-09 0.0197156 1.20828e-08
-2.5754e-09 0.0197156 1.20667e-08
-2.58606e-09 0.0197156 1.20003e-08
-2.13979e-09 0.0197156 1.18761e-08
-3.13745e-09 0.0197156 1.20957e-08
-2.78036e-09 0.0197156 1.19814e-08
-2.76314e-09 0.0197156 1.19653e-08
-2.22429e-09 0.0197156 1.22114e-08
-2.71344e-09 0.0197156 1.16331e-08
-2.98889e-09 0.0209592 1.22604e-08
-2.61742e-09 0.0209592 1.19507e-08
-2.26324e-09 0.0209592 1.20684e-08
-2.34934e-09 0.0209592 1.1597e-08
-1.63071e-09 0.0209592 1.17986e-08
-2.5795e-09 0.0209592 1.20091e-08
-2.72002e-09 0.0209592 1.19773e-08
-2.32122e-09 0.0209592 1.19203e-08
-2.37261e-09 0.0209592 1.18417e-08
-2.00708e-09 0.0209592 1.15505e-08
-2.76079e-09 0.0209592 1.171e-08
-2.62237e-09 0.0209592 1.17926e-08
-2.50754e-09 0.0209592 1.15567e-08
-2.21769e-09 0.0209592 1.16999e-08
-2.20331e-09 0.0209592 1.1786e-08
-2.53481e-09 0.0209592 1.16825e-08
-2.65445e-09 0.0209592 1.16264e-08
-2.45548e-09 0.0209592 1.16814e-08
-2.35941e-09 0.0209592 1.16426e-08
-2.27127e-09 0.0209592 1.1598e-08
-2.7315e-09 0.0209592 1.17383e-08
-2.80232e-09 0.0209592 1.15944e-08
-2.39781e-09 0.0209592 1.1729e-08
-2.32211e-09 0.0209592 1.17302e-08
-2.4875e-09 0.0209592 1.16621e-08
-2.55624e-09 0.0222045 1.14145e-08
-2.43024e-09 0.0222045 1.16018e-08
-1.90349e-09 0.0222045 1.15032e-08
-2.26913e-09 0.0222045 1.13749e-08
-2.03184e-09 0.0222045 1.12704e-08
-2.68595e-09 0.0222045 1.14133e-08
-2.54471e-09 0.0222045 1.12693e-08
-2.18323e-09 0.0222045 1.14938e-08
-2.14825e-09 0.0222045 1.13329e-08
-1.69966e-09 0.0222045 1.11707e-08
-2.64967e-09 0.0222045 1.13646e-08
-2.52441e-09 0.0222045 1.12063e-08
-2.27313e-09 0.0222045 1.12474e-08
-2.04625e-09 0.0222045 1.1299e-08
-1.76031e-09 0.0222045 1.13086e-08
-2.56057e-09 0.0222045 1.12725e-08
-2.59785e-09 0.0222045 1.10884e-08
-2.24742e-09 0.0222045 1.11436e-08
-2.01657e-09 0.0222045 1.11591e-08
-1.79252e-09 0.0222045 1.12968e-08
-2.63292e-09 0.0222045 1.13669e-08
-2.47483e-09 0.0222045 1.1264e-08
-2.21735e-09 0.0222045 1.12573e-08
-2.17708e-09 0.0222045 1.11957e-08
-2.00016e-09 0.0222045 1.13653e-08
-2.30925e-09 0.0234517 1.05382e-08
-2.23703e-09 0.0234517 1.10333e-08
-1.81336e-09 0.0234517 1.0477e-08
-1.46455e-09 0.0234517 1.05125e-08
-1.26793e-09 0.0234517 1.06094e-08
-2.79059e-09 0.0234517 1.09117e-08
-2.13793e-09 0.0234517 1.06028e-08
-1.83508e-09 0.0234517 1.08111e-08
-1.76873e-09 0.0234517 1.07326e-08
-1.7433e-09 0.0234517 1.04869e-08
-2.29754e-09 0.0234517 1.0753e-08
-2.23446e-09 0.0234517 1.08782e-08
-2.00871e-09 0.0234517 1.0677e-08
-1.80779e-09 0.0234517 1.07149e-08
-1.40718e-09 0.0234517 1.05544e-08
-2.64932e-09 0.0234517 1.09247e-08
-2.29181e-09 0.0234517 1.06868e-08
-2.00957e-09 0.0234517 1.0812e-08
-1.77513e-09 0.0234517 1.06954e-08
-1.57055e-09 0.0234517 1.07993e-08
-2.48329e-09 0.0234517 1.07332e-08
-2.51432e-09 0.0234517 1.07565e-08
-1.82248e-09 0.0234517 1.04839e-08
-1.66808e-09 0.0234517 1.06795e-08
-1.63807e-09 0.0234517 1.05149e-08
-2.9733e-09 0.0247007 1.07989e-08
-1.92316e-09 0.0247007 1.06638e-08
-1.39442e-09 0.0247007 1.03143e-08
-1.47963e-09 0.0247007 1.05343e-08
-1.29453e-09 0.0247007 1.03154e-08
-2.31321e-09 0.0247007 1.03827e-08
-1.94853e-09 0.0247007 1.04877e-08
-1.67378e-09 0.0247007 1.02211e-08
-1.64505e-09 0.0247007 1.02831e-08
-1.12722e-09 0.0247007 1.02749e-08
-2.15012e-09 0.0247007 1.04145e-08
-2.02323e-09 0.0247007 1.03776e-08
-1.6613e-09 0.0247007 1.03757e-08
-1.458e-09 0.0247007 1.01237e-08
-1.26847e-09 0.0247007 1.01335e-08
-2.28579e-09 0.0247007 1.02998e-08
-2.10324e-09 0.0247007 1.01744e-08
-1.86233e-09 0.0247007 1.04175e-08
-1.47076e-09 0.0247007 1.03679e-08
-9.04486e-10 0.0247007 1.02738e-08
-2.01269e-09 0.0247007 1.01402e-08
-2.03794e-09 0.0247007 1.0153e-08
-1.69732e-09 0.0247007 1.0405e-08
-1.64593e-09 0.0247007 1.04005e-08
-9.51911e-10 0.0247007 1.03834e-08
-2.34053e-09 0.0259515 1.03869e-08
-1.68761e-09 0.0259515 1.04263e-08
-9.81496e-10 0.0259515 1.03107e-08
-1.402e-09 0.0259515 9.92315e-09
-1.23553e-09 0.0259515 1.042e-08
-2.17225e-09 0.0259515 1.03244e-08
-1.55412e-09 0.0259515 1.02339e-08
-1.24628e-09 0.0259515 1.01359e-08
-1.19196e-09 0.0259515 1.00606e-08
-7.33528e-10 0.0259515 1.01683e-08
-2.09709e-09 0.0259515 1.01055e-08
-1.77074e-09 0.0259515 1.00177e-08
-1.38752e-09 0.0259515 1.00894e-08
-1.16909e-09 0.0259515 1.01758e-08
-4.31295e-11 0.0259515 1.00593e-08
-2.22184e-09 0.0259515 1.00651e-08
-1.85738e-09 0.0259515 1.02497e-08
-1.40495e-09 0.0259515 1.00468e-08
-1.14987e-09 0.0259515 1.00729e-08
-4.53255e-10 0.0259515 1.02735e-08
-2.33289e-09 0.0259515 1.03583e-08
-1.81926e-09 0.0259515 9.94413e-09
-1.45091e-09 0.0259515 9.94105e-09
-9.92165e-10 0.0259515 1.02875e-08
-8.57211e-10 0.0259515 1.0721e-08
-1.86015e-09 0.0272042 1.03186e-08
-8.91045e-10 0.0272042 1.02072e-08
-1.18073e-09 0.0272042 9.6784e-09
-8.36453e-10 0.0272042 1.00871e-08
-3.74012e-10 0.0272042 9.99805e-09
-1.60415e-09 0.0272042 1.03487e-08
-1.20396e-09 0.0272042 1.00471e-08
-9.43424e-10 0.0272042 9.83031e-09
-7.97093e-10 0.0272042 1.01095e-08
-3.79567e-10 0.0272042 1.02212e-08
-1.87003e-09 0.0272042 9.93927e-09
-1.3292e-09 0.0272042 1.00339e-08
-1.02247e-09 0.0272042 1.01711e-08
-7.88665e-10 0.0272042 1.01233e-08
9.15081e-11 0.0272042 1.03928e-08
-1.7265e-09 0.0272042 9.96498e-09
-1.39584e-09 0.0272042 1.03514e-08
-1.14222e-09 0.0272042 1.02633e-08
-7.52502e-10 0.0272042 1.02589e-08
-2.82125e-10 0.0272042 1.03232e-08
-1.04578e-09 0.0272042 1.03841e-08
-1.3845e-09 0.0272042 9.98887e-09
-1.08087e-09 0.0272042 9.90216e-09
-6.23654e-10 0.0272042 1.04078e-08
-8.73772e-10 0.0272042 1.03858e-08
-8.58043e-10 0.0284587 1.01241e-08
-8.51557e-10 0.0284587 9.73617e-09
-6.04355e-10 0.0284587 9.71773e-09
-5.05961e-10 0.0284587 9.905e-09
2.7551e-10 0.0284587 9.88631e-09
-1.06595e-09 0.0284587 1.0255e-08
-8.46545e-10 0.0284587 1.00269e-08
-6.54001e-10 0.0284587 1.01567e-08
-5.74145e-10 0.0284587 9.96817e-09
9.44493e-11 0.0284587 1.03803e-08
-9.99408e-10 0.0284587 1.02225e-08
-9.58928e-10 0.0284587 1.04395e-08