<?xml version="1.0"?>
<VTKFile type="UnstructuredGrid" version="0.1" byte_order="LittleEndian">
<UnstructuredGrid>
<Piece NumberOfPoints="1025" NumberOfCells="640">
<Points>
<DataArray type="Float32" NumberOfComponents="3" format="ascii">
0 0 0
0.025 0 0
0.05 0 0
0.075 0 0
0.1 0 0
0 0.025 0
0.025 0.025 0
0.05 0.025 0
0.075 0.025 0
0.1 0.025 0
0 0.05 0
0.025 0.05 0
0.05 0.05 0
0.075 0.05 0
0.1 0.05 0
0 0.075 0
0.025 0.075 0
0.05 0.075 0
0.075 0.075 0
0.1 0.075 0
0 0.1 0
0.025 0.1 0
0.05 0.1 0
0.075 0.1 0
0.1 0.1 0
0 0 0.025
0.025 0 0.025
0.05 0 0.025
0.075 0 0.025
0.1 0 0.025
0 0.025 0.025
0.025 0.025 0.025
0.05 0.025 0.025
0.075 0.025 0.025
0.1 0.025 0.025
0 0.05 0.025
0.025 0.05 0.025
0.05 0.05 0.025
0.075 0.05 0.025
0.1 0.05 0.025
0 0.075 0.025
0.025 0.075 0.025
0.05 0.075 0.025
0.075 0.075 0.025
0.1 0.075 0.025
0 0.1 0.025
0.025 0.1 0.025
0.05 0.1 0.025
0.075 0.1 0.025
0.1 0.1 0.025
0 0 0.05
0.025 0 0.05
0.05 0 0.05
0.075 0 0.05
0.1 0 0.05
0 0.025 0.05
0.025 0.025 0.05
0.05 0.025 0.05
0.075 0.025 0.05
0.1 0.025 0.05
0 0.05 0.05
0.025 0.05 0.05
0.05 0.05 0.05
0.075 0.05 0.05
0.1 0.05 0.05
0 0.075 0.05
0.025 0.075 0.05
0.05 0.075 0.05
0.075 0.075 0.05
0.1 0.075 0.05
0 0.1 0.05
0.025 0.1 0.05
0.05 0.1 0.05
0.075 0.1 0.05
0.1 0.1 0.05
0 0 0.075
0.025 0 0.075
0.05 0 0.075
0.075 0 0.075
0.1 0 0.075
0 0.025 0.075
0.025 0.025 0.075
0.05 0.025 0.075
0.075 0.025 0.075
0.1 0.025 0.075
0 0.05 0.075
0.025 0.05 0.075
0.05 0.05 0.075
0.075 0.05 0.075
0.1 0.05 0.075
0 0.075 0.075
0.025 0.075 0.075
0.05 0.075 0.075
0.075 0.075 0.075
0.1 0.075 0.075
0 0.1 0.075
0.025 0.1 0.075
0.05 0.1 0.075
0.075 0.1 0.075
0.1 0.1 0.075
0 0 0.1
0.025 0 0.1
0.05 0 0.1
0.075 0 0.1
0.1 0 0.1
0 0.025 0.1
0.025 0.025 0.1
0.05 0.025 0.1
0.075 0.025 0.1
0.1 0.025 0.1
0 0.05 0.1
0.025 0.05 0.1
0.05 0.05 0.1
0.075 0.05 0.1
0.1 0.05 0.1
0 0.075 0.1
0.025 0.075 0.1
0.05 0.075 0.1
0.075 0.075 0.1
0.1 0.075 0.1
0 0.1 0.1
0.025 0.1 0.1
0.05 0.1 0.1
0.075 0.1 0.1
0.1 0.1 0.1
0 0 0.125
0.025 0 0.125
0.05 0 0.125
0.075 0 0.125
0.1 0 0.125
0 0.025 0.125
0.025 0.025 0.125
0.05 0.025 0.125
0.075 0.025 0.125
0.1 0.025 0.125
0 0.05 0.125
0.025 0.05 0.125
0.05 0.05 0.125
0.075 0.05 0.125
0.1 0.05 0.125
0 0.075 0.125
0.025 0.075 0.125
0.05 0.075 0.125
0.075 0.075 0.125
0.1 0.075 0.125
0 0.1 0.125
0.025 0.1 0.125
0.05 0.1 0.125
0.075 0.1 0.125
0.1 0.1 0.125
0 0 0.15
0.025 0 0.15
0.05 0 0.15
0.075 0 0.15
0.1 0 0.15
0 0.025 0.15
0.025 0.025 0.15
0.05 0.025 0.15
0.075 0.025 0.15
0.1 0.025 0.15
0 0.05 0.15
0.025 0.05 0.15
0.05 0.05 0.15
0.075 0.05 0.15
0.1 0.05 0.15
0 0.075 0.15
0.025 0.075 0.15
0.05 0.075 0.15
0.075 0.075 0.15
0.1 0.075 0.15
0 0.1 0.15
0.025 0.1 0.15
0.05 0.1 0.15
0.075 0.1 0.15
0.1 0.1 0.15
0 0 0.175
0.025 0 0.175
0.05 0 0.175
0.075 0 0.175
0.1 0 0.175
0 0.025 0.175
0.025 0.025 0.175
0.05 0.025 0.175
0.075 0.025 0.175
0.1 0.025 0.175
0 0.05 0.175
0.025 0.05 0.175
0.05 0.05 0.175
0.075 0.05 0.175
0.1 0.05 0.175
0 0.075 0.175
0.025 0.075 0.175
0.05 0.075 0.175
0.075 0.075 0.175
0.1 0.075 0.175
0 0.1 0.175
0.025 0.1 0.175
0.05 0.1 0.175
0.075 0.1 0.175
0.1 0.1 0.175
0 0 0.2
0.025 0 0.2
0.05 0 0.2
0.075 0 0.2
0.1 0 0.2
0 0.025 0.2
0.025 0.025 0.2
0.05 0.025 0.2
0.075 0.025 0.2
0.1 0.025 0.2
0 0.05 0.2
0.025 0.05 0.2
0.05 0.05 0.2
0.075 0.05 0.2
0.1 0.05 0.2
0 0.075 0.2
0.025 0.075 0.2
0.05 0.075 0.2
0.075 0.075 0.2
0.1 0.075 0.2
0 0.1 0.2
0.025 0.1 0.2
0.05 0.1 0.2
0.075 0.1 0.2
0.1 0.1 0.2
0 0 0.225
0.025 0 0.225
0.05 0 0.225
0.075 0 0.225
0.1 0 0.225
0 0.025 0.225
0.025 0.025 0.225
0.05 0.025 0.225
0.075 0.025 0.225
0.1 0.025 0.225
0 0.05 0.225
0.025 0.05 0.225
0.05 0.05 0.225
0.075 0.05 0.225
0.1 0.05 0.225
0 0.075 0.225
0.025 0.075 0.225
0.05 0.075 0.225
0.075 0.075 0.225
0.1 0.075 0.225
0 0.1 0.225
0.025 0.1 0.225
0.05 0.1 0.225
0.075 0.1 0.225
0.1 0.1 0.225
0 0 0.25
0.025 0 0.25
0.05 0 0.25
0.075 0 0.25
0.1 0 0.25
0 0.025 0.25
0.025 0.025 0.25
0.05 0.025 0.25
0.075 0.025 0.25
0.1 0.025 0.25
0 0.05 0.25
0.025 0.05 0.25
0.05 0.05 0.25
0.075 0.05 0.25
0.1 0.05 0.25
0 0.075 0.25
0.025 0.075 0.25
0.05 0.075 0.25
0.075 0.075 0.25
0.1 0.075 0.25
0 0.1 0.25
0.025 0.1 0.25
0.05 0.1 0.25
0.075 0.1 0.25
0.1 0.1 0.25
0 0 0.275
0.025 0 0.275
0.05 0 0.275
0.075 0 0.275
0.1 0 0.275
0 0.025 0.275
0.025 0.025 0.275
0.05 0.025 0.275
0.075 0.025 0.275
0.1 0.025 0.275
0 0.05 0.275
0.025 0.05 0.275
0.05 0.05 0.275
0.075 0.05 0.275
0.1 0.05 0.275
0 0.075 0.275
0.025 0.075 0.275
0.05 0.075 0.275
0.075 0.075 0.275
0.1 0.075 0.275
0 0.1 0.275
0.025 0.1 0.275
0.05 0.1 0.275
0.075 0.1 0.275
0.1 0.1 0.275
0 0 0.3
0.025 0 0.3
0.05 0 0.3
0.075 0 0.3
0.1 0 0.3
0 0.025 0.3
0.025 0.025 0.3
0.05 0.025 0.3
0.075 0.025 0.3
0.1 0.025 0.3
0 0.05 0.3
0.025 0.05 0.3
0.05 0.05 0.3
0.075 0.05 0.3
0.1 0.05 0.3
0 0.075 0.3
0.025 0.075 0.3
0.05 0.075 0.3
0.075 0.075 0.3
0.1 0.075 0.3
0 0.1 0.3
0.025 0.1 0.3
0.05 0.1 0.3
0.075 0.1 0.3
0.1 0.1 0.3
0 0 0.325
0.025 0 0.325
0.05 0 0.325
0.075 0 0.325
0.1 0 0.325
0 0.025 0.325
0.025 0.025 0.325
0.05 0.025 0.325
0.075 0.025 0.325
0.1 0.025 0.325
0 0.05 0.325
0.025 0.05 0.325
0.05 0.05 0.325
0.075 0.05 0.325
0.1 0.05 0.325
0 0.075 0.325
0.025 0.075 0.325
0.05 0.075 0.325
0.075 0.075 0.325
0.1 0.075 0.325
0 0.1 0.325
0.025 0.1 0.325
0.05 0.1 0.325
0.075 0.1 0.325
0.1 0.1 0.325
0 0 0.35
0.025 0 0.35
0.05 0 0.35
0.075 0 0.35
0.1 0 0.35
0 0.025 0.35
0.025 0.025 0.35
0.05 0.025 0.35
0.075 0.025 0.35
0.1 0.025 0.35
0 0.05 0.35
0.025 0.05 0.35
0.05 0.05 0.35
0.075 0.05 0.35
0.1 0.05 0.35
0 0.075 0.35
0.025 0.075 0.35
0.05 0.075 0.35
0.075 0.075 0.35
0.1 0.075 0.35
0 0.1 0.35
0.025 0.1 0.35
0.05 0.1 0.35
0.075 0.1 0.35
0.1 0.1 0.35
0 0 0.375
0.025 0 0.375
0.05 0 0.375
0.075 0 0.375
0.1 0 0.375
0 0.025 0.375
0.025 0.025 0.375
0.05 0.025 0.375
0.075 0.025 0.375
0.1 0.025 0.375
0 0.05 0.375
0.025 0.05 0.375
0.05 0.05 0.375
0.075 0.05 0.375
0.1 0.05 0.375
0 0.075 0.375
0.025 0.075 0.375
0.05 0.075 0.375
0.075 0.075 0.375
0.1 0.075 0.375
0 0.1 0.375
0.025 0.1 0.375
0.05 0.1 0.375
0.075 0.1 0.375
0.1 0.1 0.375
0 0 0.4
0.025 0 0.4
0.05 0 0.4
0.075 0 0.4
0.1 0 0.4
0 0.025 0.4
0.025 0.025 0.4
0.05 0.025 0.4
0.075 0.025 0.4
0.1 0.025 0.4
0 0.05 0.4
0.025 0.05 0.4
0.05 0.05 0.4
0.075 0.05 0.4
0.1 0.05 0.4
0 0.075 0.4
0.025 0.075 0.4
0.05 0.075 0.4
0.075 0.075 0.4
0.1 0.075 0.4
0 0.1 0.4
0.025 0.1 0.4
0.05 0.1 0.4
0.075 0.1 0.4
0.1 0.1 0.4
0 0 0.425
0.025 0 0.425
0.05 0 0.425
0.075 0 0.425
0.1 0 0.425
0 0.025 0.425
0.025 0.025 0.425
0.05 0.025 0.425
0.075 0.025 0.425
0.1 0.025 0.425
0 0.05 0.425
0.025 0.05 0.425
0.05 0.05 0.425
0.075 0.05 0.425
0.1 0.05 0.425
0 0.075 0.425
0.025 0.075 0.425
0.05 0.075 0.425
0.075 0.075 0.425
0.1 0.075 0.425
0 0.1 0.425
0.025 0.1 0.425
0.05 0.1 0.425
0.075 0.1 0.425
0.1 0.1 0.425
0 0 0.45
0.025 0 0.45
0.05 0 0.45
0.075 0 0.45
0.1 0 0.45
0 0.025 0.45
0.025 0.025 0.45
0.05 0.025 0.45
0.075 0.025 0.45
0.1 0.025 0.45
0 0.05 0.45
0.025 0.05 0.45
0.05 0.05 0.45
0.075 0.05 0.45
0.1 0.05 0.45
0 0.075 0.45
0.025 0.075 0.45
0.05 0.075 0.45
0.075 0.075 0.45
0.1 0.075 0.45
0 0.1 0.45
0.025 0.1 0.45
0.05 0.1 0.45
0.075 0.1 0.45
0.1 0.1 0.45
0 0 0.475
0.025 0 0.475
0.05 0 0.475
0.075 0 0.475
0.1 0 0.475
0 0.025 0.475
0.025 0.025 0.475
0.05 0.025 0.475
0.075 0.025 0.475
0.1 0.025 0.475
0 0.05 0.475
0.025 0.05 0.475
0.05 0.05 0.475
0.075 0.05 0.475
0.1 0.05 0.475
0 0.075 0.475
0.025 0.075 0.475
0.05 0.075 0.475
0.075 0.075 0.475
0.1 0.075 0.475
0 0.1 0.475
0.025 0.1 0.475
0.05 0.1 0.475
0.075 0.1 0.475
0.1 0.1 0.475
0 0 0.5
0.025 0 0.5
0.05 0 0.5
0.075 0 0.5
0.1 0 0.5
0 0.025 0.5
0.025 0.025 0.5
0.05 0.025 0.5
0.075 0.025 0.5
0.1 0.025 0.5
0 0.05 0.5
0.025 0.05 0.5
0.05 0.05 0.5
0.075 0.05 0.5
0.1 0.05 0.5
0 0.075 0.5
0.025 0.075 0.5
0.05 0.075 0.5
0.075 0.075 0.5
0.1 0.075 0.5
0 0.1 0.5
0.025 0.1 0.5
0.05 0.1 0.5
0.075 0.1 0.5
0.1 0.1 0.5
0 0 0.525
0.025 0 0.525
0.05 0 0.525
0.075 0 0.525
0.1 0 0.525
0 0.025 0.525
0.025 0.025 0.525
0.05 0.025 0.525
0.075 0.025 0.525
0.1 0.025 0.525
0 0.05 0.525
0.025 0.05 0.525
0.05 0.05 0.525
0.075 0.05 0.525
0.1 0.05 0.525
0 0.075 0.525
0.025 0.075 0.525
0.05 0.075 0.525
0.075 0.075 0.525
0.1 0.075 0.525
0 0.1 0.525
0.025 0.1 0.525
0.05 0.1 0.525
0.075 0.1 0.525
0.1 0.1 0.525
0 0 0.55
0.025 0 0.55
0.05 0 0.55
0.075 0 0.55
0.1 0 0.55
0 0.025 0.55
0.025 0.025 0.55
0.05 0.025 0.55
0.075 0.025 0.55
0.1 0.025 0.55
0 0.05 0.55
0.025 0.05 0.55
0.05 0.05 0.55
0.075 0.05 0.55
0.1 0.05 0.55
0 0.075 0.55
0.025 0.075 0.55
0.05 0.075 0.55
0.075 0.075 0.55
0.1 0.075 0.55
0 0.1 0.55
0.025 0.1 0.55
0.05 0.1 0.55
0.075 0.1 0.55
0.1 0.1 0.55
0 0 0.575
0.025 0 0.575
0.05 0 0.575
0.075 0 0.575
0.1 0 0.575
0 0.025 0.575
0.025 0.025 0.575
0.05 0.025 0.575
0.075 0.025 0.575
0.1 0.025 0.575
0 0.05 0.575
0.025 0.05 0.575
0.05 0.05 0.575
0.075 0.05 0.575
0.1 0.05 0.575
0 0.075 0.575
0.025 0.075 0.575
0.05 0.075 0.575
0.075 0.075 0.575
0.1 0.075 0.575
0 0.1 0.575
0.025 0.1 0.575
0.05 0.1 0.575
0.075 0.1 0.575
0.1 0.1 0.575
0 0 0.6
0.025 0 0.6
0.05 0 0.6
0.075 0 0.6
0.1 0 0.6
0 0.025 0.6
0.025 0.025 0.6
0.05 0.025 0.6
0.075 0.025 0.6
0.1 0.025 0.6
0 0.05 0.6
0.025 0.05 0.6
0.05 0.05 0.6
0.075 0.05 0.6
0.1 0.05 0.6
0 0.075 0.6
0.025 0.075 0.6
0.05 0.075 0.6
0.075 0.075 0.6
0.1 0.075 0.6
0 0.1 0.6
0.025 0.1 0.6
0.05 0.1 0.6
0.075 0.1 0.6
0.1 0.1 0.6
0 0 0.625
0.025 0 0.625
0.05 0 0.625
0.075 0 0.625
0.1 0 0.625
0 0.025 0.625
0.025 0.025 0.625
0.05 0.025 0.625
0.075 0.025 0.625
0.1 0.025 0.625
0 0.05 0.625
0.025 0.05 0.625
0.05 0.05 0.625
0.075 0.05 0.625
0.1 0.05 0.625
0 0.075 0.625
0.025 0.075 0.625
0.05 0.075 0.625
0.075 0.075 0.625
0.1 0.075 0.625
0 0.1 0.625
0.025 0.1 0.625
0.05 0.1 0.625
0.075 0.1 0.625
0.1 0.1 0.625
0 0 0.65
0.025 0 0.65
0.05 0 0.65
0.075 0 0.65
0.1 0 0.65
0 0.025 0.65
0.025 0.025 0.65
0.05 0.025 0.65
0.075 0.025 0.65
0.1 0.025 0.65
0 0.05 0.65
0.025 0.05 0.65
0.05 0.05 0.65
0.075 0.05 0.65
0.1 0.05 0.65
0 0.075 0.65
0.025 0.075 0.65
0.05 0.075 0.65
0.075 0.075 0.65
0.1 0.075 0.65
0 0.1 0.65
0.025 0.1 0.65
0.05 0.1 0.65
0.075 0.1 0.65
0.1 0.1 0.65
0 0 0.675
0.025 0 0.675
0.05 0 0.675
0.075 0 0.675
0.1 0 0.675
[...]
<PointData Vectors="Displacement">
<DataArray type="Float32" Name="Displacement" NumberOfComponents="3" format="ascii">
0 0 0
0 0 0
0 0 0
0 0 0
0 0 0
0 0 0
0 0 0
0 0 0
0 0 0
0 0 0
0 0 0
0 0 0
0 0 0
0 0 0
0 0 0
0 0 0
0 0 0
0 0 0
0 0 0
0 0 0
0 0 0
0 0 0
0 0 0
0 0 0
0 0 0
-2.54363e-09 -0.00042919 -4.22905e-09
-1.72332e-09 -0.000429191 -4.12837e-09
-1.35601e-09 -0.000429191 -4.08739e-09
-8.70228e-10 -0.000429191 -4.01828e-09
-1.74623e-10 -0.000429191 -3.99384e-09
-2.558e-09 -0.00042919 -4.13731e-09
-1.79897e-09 -0.00042919 -4.14774e-09
-1.32279e-09 -0.00042919 -4.11933e-09
-8.91777e-10 -0.00042919 -4.15289e-09
-1.17067e-10 -0.00042919 -4.08508e-09
-2.59676e-09 -0.000429189 -4.11656e-09
-1.80751e-09 -0.000429189 -4.11784e-09
-1.33575e-09 -0.000429189 -4.16115e-09
-8.8198e-10 -0.000429189 -4.14672e-09
-7.99074e-11 -0.00042919 -4.1448e-09
-2.5969e-09 -0.000429189 -4.16358e-09
-1.82763e-09 -0.000429189 -4.17568e-09
-1.33631e-09 -0.000429189 -4.17565e-09
-9.00301e-10 -0.000429189 -4.153e-09
-8.43778e-11 -0.000429189 -4.19039e-09
-2.57115e-09 -0.000429188 -4.14237e-09
-1.78931e-09 -0.000429188 -4.21679e-09
-1.34449e-09 -0.000429188 -4.22692e-09
-9.18843e-10 -0.000429188 -4.17185e-09
-8.77394e-11 -0.000429188 -4.12464e-09
-3.99721e-09 -0.000822256 -8.44821e-09
-3.35574e-09 -0.000822255 -8.49025e-09
-2.6986e-09 -0.000822255 -8.42511e-09
-1.9744e-09 -0.000822255 -8.34484e-09
-1.13882e-09 -0.000822256 -8.34233e-09
-4.17531e-09 -0.000822255 -8.41506e-09
-3.40128e-09 -0.000822255 -8.39127e-09
-2.62237e-09 -0.000822254 -8.41276e-09
-2.03922e-09 -0.000822254 -8.44179e-09
-1.23754e-09 -0.000822255 -8.33937e-09
-4.09484e-09 -0.000822254 -8.37931e-09
-3.41572e-09 -0.000822254 -8.44051e-09
-2.68289e-09 -0.000822254 -8.40053e-09
-1.94199e-09 -0.000822254 -8.44103e-09
-1.18278e-09 -0.000822254 -8.48444e-09
-4.32581e-09 -0.000822252 -8.46274e-09
-3.37604e-09 -0.000822253 -8.45869e-09
-2.70431e-09 -0.000822252 -8.45038e-09
-2.00048e-09 -0.000822252 -8.51317e-09
-1.16378e-09 -0.000822253 -8.49825e-09
-4.27114e-09 -0.000822253 -8.54581e-09
-3.43586e-09 -0.000822252 -8.53688e-09
-2.75872e-09 -0.000822252 -8.48179e-09
-2.08616e-09 -0.000822251 -8.53492e-09
-1.13947e-09 -0.000822253 -8.50993e-09
-5.41427e-09 -0.0011449 -1.253e-08
-4.68492e-09 -0.00114491 -1.2597e-08
-4.00878e-09 -0.0011449 -1.26471e-08
-3.30806e-09 -0.0011449 -1.28104e-08
-2.58088e-09 -0.0011449 -1.25101e-08
-5.48469e-09 -0.0011449 -1.25542e-08
-4.75427e-09 -0.0011449 -1.26838e-08
-4.03422e-09 -0.0011449 -1.27119e-08
-3.26321e-09 -0.0011449 -1.26442e-08
-2.55965e-09 -0.0011449 -1.27349e-08
-5.55357e-09 -0.0011449 -1.26958e-08
-4.787e-09 -0.0011449 -1.26479e-08
-4.03524e-09 -0.0011449 -1.27716e-08
-3.35923e-09 -0.0011449 -1.27357e-08
-2.48961e-09 -0.0011449 -1.26026e-08
-5.64287e-09 -0.0011449 -1.2745e-08
-4.77639e-09 -0.0011449 -1.27338e-08
-4.04264e-09 -0.0011449 -1.27777e-08
-3.32427e-09 -0.0011449 -1.28073e-08
-2.58572e-09 -0.0011449 -1.26989e-08
-5.44419e-09 -0.0011449 -1.2588e-08
-4.6863e-09 -0.0011449 -1.27099e-08
-4.1139e-09 -0.0011449 -1.27227e-08
-3.46362e-09 -0.0011449 -1.2701e-08
-2.50004e-09 -0.0011449 -1.3005e-08
-6.85205e-09 -0.00136646 -1.66431e-08
-6.17343e-09 -0.00136646 -1.68798e-08
-5.36665e-09 -0.00136646 -1.68643e-08
-4.61796e-09 -0.00136646 -1.69157e-08
-3.8743e-09 -0.00136646 -1.67921e-08
-6.60149e-09 -0.00136646 -1.67824e-08
-6.13905e-09 -0.00136646 -1.68499e-08
-5.38081e-09 -0.00136646 -1.68408e-08
-4.6405e-09 -0.00136645 -1.68054e-08
-3.89144e-09 -0.00136646 -1.6992e-08
-6.82338e-09 -0.00136645 -1.68375e-08
-6.15371e-09 -0.00136645 -1.68247e-08
-5.41471e-09 -0.00136645 -1.68057e-08
-4.63762e-09 -0.00136645 -1.68624e-08
-3.86536e-09 -0.00136645 -1.67478e-08
-6.87977e-09 -0.00136645 -1.67108e-08
-6.07314e-09 -0.00136645 -1.68234e-08
-5.4487e-09 -0.00136645 -1.6832e-08
-4.69207e-09 -0.00136645 -1.68063e-08
-3.93871e-09 -0.00136645 -1.68153e-08
-6.6353e-09 -0.00136645 -1.65507e-08
-6.27472e-09 -0.00136645 -1.68149e-08
-5.36516e-09 -0.00136645 -1.69285e-08
-4.97266e-09 -0.00136645 -1.68043e-08
-3.90336e-09 -0.00136645 -1.69369e-08
-7.9857e-09 -0.00146149 -2.08762e-08
-7.50834e-09 -0.00146149 -2.06678e-08
-6.97382e-09 -0.00146149 -2.06263e-08
-5.88409e-09 -0.00146149 -2.08911e-08
-4.88395e-09 -0.00146149 -2.08885e-08
-8.07277e-09 -0.00146149 -2.07948e-08
-7.53607e-09 -0.00146149 -2.07237e-08
-6.77859e-09 -0.00146149 -2.06474e-08
-6.12677e-09 -0.00146149 -2.077e-08
-5.28407e-09 -0.00146149 -2.07031e-08
-8.06835e-09 -0.00146149 -2.06213e-08
-7.44164e-09 -0.00146149 -2.07417e-08
-6.86124e-09 -0.00146149 -2.07316e-08
-6.0834e-09 -0.00146149 -2.06377e-08
-5.35183e-09 -0.00146149 -2.08199e-08
-8.11815e-09 -0.00146149 -2.06641e-08
-7.47889e-09 -0.00146148 -2.0706e-08
-6.85204e-09 -0.00146149 -2.06177e-08
-6.22254e-09 -0.00146149 -2.06865e-08
-5.55515e-09 -0.00146148 -2.04658e-08
-8.46301e-09 -0.00146149 -2.04121e-08
-7.1846e-09 -0.00146148 -2.07353e-08
-6.75842e-09 -0.00146148 -2.06113e-08
-6.26455e-09 -0.00146148 -2.05595e-08
-5.53131e-09 -0.00146149 -2.0804e-08
-1.00404e-08 -0.0014113 -2.42215e-08
-9.01408e-09 -0.0014113 -2.42278e-08
-8.22107e-09 -0.0014113 -2.43442e-08
-7.58295e-09 -0.0014113 -2.44871e-08
-6.5431e-09 -0.0014113 -2.43369e-08
-9.51471e-09 -0.0014113 -2.42421e-08
-8.83099e-09 -0.0014113 -2.42226e-08
-8.37538e-09 -0.0014113 -2.42942e-08
-7.5541e-09 -0.00141129 -2.42227e-08
-6.67281e-09 -0.0014113 -2.4333e-08
-9.43446e-09 -0.0014113 -2.42405e-08
-8.88109e-09 -0.00141129 -2.428e-08
-8.26367e-09 -0.00141129 -2.42317e-08
-7.62344e-09 -0.0014113 -2.41386e-08
-6.97364e-09 -0.00141129 -2.41996e-08
-9.48235e-09 -0.00141129 -2.43137e-08
-8.78275e-09 -0.00141129 -2.41794e-08
-8.2016e-09 -0.00141129 -2.40643e-08
-7.5832e-09 -0.00141129 -2.41516e-08
-7.07507e-09 -0.0014113 -2.3979e-08
-9.0668e-09 -0.00141129 -2.44722e-08
-8.80252e-09 -0.00141129 -2.41132e-08
-8.37806e-09 -0.00141129 -2.42281e-08
-7.78437e-09 -0.0014113 -2.40069e-08
-6.81877e-09 -0.0014113 -2.39476e-08
-1.04815e-08 -0.0012051 -2.74658e-08
-1.03251e-08 -0.0012051 -2.72399e-08
-9.97112e-09 -0.0012051 -2.76197e-08
-9.13598e-09 -0.0012051 -2.74521e-08
-8.04663e-09 -0.0012051 -2.76206e-08
-1.06305e-08 -0.0012051 -2.72183e-08
-1.02415e-08 -0.0012051 -2.75022e-08
-9.80334e-09 -0.0012051 -2.7479e-08
-9.28314e-09 -0.0012051 -2.74427e-08
-8.36924e-09 -0.0012051 -2.73228e-08
-1.04725e-08 -0.0012051 -2.73013e-08
-1.02669e-08 -0.0012051 -2.73883e-08
-9.76417e-09 -0.0012051 -2.73235e-08
-9.11015e-09 -0.0012051 -2.7245e-08
-8.62516e-09 -0.0012051 -2.71808e-08
-1.06812e-08 -0.0012051 -2.72972e-08
-1.00683e-08 -0.0012051 -2.73317e-08
-9.57921e-09 -0.0012051 -2.7338e-08
-9.36389e-09 -0.0012051 -2.7142e-08
-8.56221e-09 -0.0012051 -2.71905e-08
-1.09166e-08 -0.0012051 -2.75232e-08
-1.01363e-08 -0.0012051 -2.73631e-08
-9.9644e-09 -0.0012051 -2.72125e-08
-9.19558e-09 -0.0012051 -2.72732e-08
-8.89301e-09 -0.0012051 -2.71721e-08
-1.16848e-08 -0.00084093 -2.99416e-08
-1.15305e-08 -0.000840931 -3.04971e-08
-1.12746e-08 -0.000840929 -3.01098e-08
-1.06305e-08 -0.000840931 -3.00913e-08
-1.03013e-08 -0.000840931 -2.99565e-08
-1.1828e-08 -0.00084093 -3.02285e-08
-1.16167e-08 -0.000840928 -3.01012e-08
-1.12233e-08 -0.000840929 -3.02585e-08
-1.07477e-08 -0.000840931 -2.98671e-08
-1.03801e-08 -0.000840928 -3.01192e-08
-1.19917e-08 -0.000840926 -3.00635e-08
-1.15259e-08 -0.000840929 -3.00472e-08
-1.11161e-08 -0.000840929 -3.00194e-08
-1.08668e-08 -0.000840929 -3.0047e-08
-1.02614e-08 -0.000840931 -2.98779e-08
-1.21132e-08 -0.000840927 -3.00077e-08
-1.14749e-08 -0.000840927 -3.01041e-08
-1.1193e-08 -0.000840927 -3.01119e-08
-1.0778e-08 -0.000840928 -3.01112e-08
-1.05381e-08 -0.000840931 -2.98926e-08
-1.16396e-08 -0.000840927 -2.97353e-08
-1.16094e-08 -0.000840927 -2.99506e-08
-1.1194e-08 -0.000840927 -3.01272e-08
-1.07835e-08 -0.000840929 -2.9942e-08
-1.01859e-08 -0.000840928 -2.99983e-08
-1.31387e-08 -0.000326101 -3.2623e-08
-1.27733e-08 -0.000326099 -3.26348e-08
-1.23967e-08 -0.0003261 -3.26353e-08
-1.2112e-08 -0.000326103 -3.23696e-08
-1.23077e-08 -0.000326103 -3.23437e-08
-1.30103e-08 -0.000326099 -3.24429e-08
-1.29621e-08 -0.000326101 -3.24455e-08
-1.25296e-08 -0.0003261 -3.23434e-08
-1.22987e-08 -0.0003261 -3.23552e-08
-1.18867e-08 -0.000326102 -3.21873e-08
-1.32639e-08 -0.000326098 -3.23601e-08
-1.28921e-08 -0.000326098 -3.24134e-08
-1.2666e-08 -0.0003261 -3.23302e-08
-1.23296e-08 -0.000326101 -3.21242e-08
-1.2001e-08 -0.0003261 -3.22068e-08
-1.32323e-08 -0.000326099 -3.21902e-08
-1.28213e-08 -0.000326098 -3.22269e-08
-1.2552e-08 -0.000326098 -3.23129e-08
-1.23207e-08 -0.0003261 -3.22048e-08
-1.2219e-08 -0.000326101 -3.21811e-08
-1.34661e-08 -0.000326102 -3.21473e-08
-1.27938e-08 -0.000326098 -3.2185e-08
-1.26749e-08 -0.0003261 -3.24576e-08
-1.24011e-08 -0.0003261 -3.22752e-08
-1.20367e-08 -0.000326099 -3.20666e-08
-1.42396e-08 0.000322757 -3.4219e-08
-1.39196e-08 0.000322755 -3.42786e-08
-1.37828e-08 0.000322755 -3.42226e-08
-1.37016e-08 0.000322756 -3.39937e-08
-1.34382e-08 0.000322754 -3.39549e-08
-1.43888e-08 0.000322756 -3.42585e-08
-1.40881e-08 0.000322757 -3.40151e-08
-1.40041e-08 0.000322756 -3.41135e-08
-1.38152e-08 0.000322756 -3.3976e-08
-1.37381e-08 0.000322754 -3.39449e-08
-1.44465e-08 0.000322757 -3.41156e-08
-1.42065e-08 0.000322757 -3.41083e-08
-1.40317e-08 0.000322758 -3.3938e-08
-1.37652e-08 0.000322756 -3.40342e-08
-1.37747e-08 0.000322756 -3.38675e-08
-1.45439e-08 0.000322757 -3.39551e-08
-1.42772e-08 0.000322757 -3.39633e-08
-1.39615e-08 0.000322757 -3.40607e-08
-1.37448e-08 0.000322757 -3.38164e-08
-1.37094e-08 0.000322758 -3.40128e-08
-1.41125e-08 0.000322758 -3.36558e-08
-1.41243e-08 0.000322755 -3.39239e-08
-1.40522e-08 0.000322758 -3.39892e-08
-1.36826e-08 0.000322758 -3.39862e-08
-1.35297e-08 0.000322758 -3.36669e-08
-1.49727e-08 0.00108021 -3.51071e-08
-1.53452e-08 0.00108021 -3.51898e-08
-1.52522e-08 0.00108021 -3.5176e-08
-1.51966e-08 0.00108021 -3.50399e-08
-1.56074e-08 0.00108021 -3.49279e-08
-1.54695e-08 0.00108021 -3.52056e-08
-1.53225e-08 0.00108021 -3.51838e-08
-1.53065e-08 0.00108021 -3.50703e-08
-1.53005e-08 0.00108021 -3.50918e-08
-1.52535e-08 0.00108021 -3.50309e-08
-1.54357e-08 0.00108021 -3.51124e-08
-1.54465e-08 0.00108021 -3.51144e-08
-1.5296e-08 0.00108021 -3.4972e-08
-1.52752e-08 0.00108021 -3.50544e-08
-1.55143e-08 0.00108021 -3.49352e-08
-1.57192e-08 0.00108021 -3.50693e-08
-1.54246e-08 0.00108021 -3.51341e-08
-1.52917e-08 0.00108021 -3.51153e-08
-1.52297e-08 0.00108021 -3.49218e-08
-1.51898e-08 0.00108021 -3.50332e-08
-1.5562e-08 0.00108021 -3.50661e-08
-1.54495e-08 0.00108021 -3.52385e-08
-1.52618e-08 0.00108021 -3.49376e-08
-1.52606e-08 0.00108021 -3.51333e-08
-1.46633e-08 0.00108021 -3.47862e-08
-1.65358e-08 0.00191313 -3.53604e-08
-1.643e-08 0.00191313 -3.54856e-08
-1.64419e-08 0.00191313 -3.55476e-08
-1.67266e-08 0.00191313 -3.55917e-08
-1.67966e-08 0.00191313 -3.5606e-08
-1.62839e-08 0.00191313 -3.53477e-08
-1.63526e-08 0.00191313 -3.54429e-08
-1.65097e-08 0.00191314 -3.53485e-08
-1.66282e-08 0.00191314 -3.54375e-08
-1.6956e-08 0.00191314 -3.55254e-08
-1.63559e-08 0.00191313 -3.54939e-08
-1.64511e-08 0.00191314 -3.55105e-08
-1.648e-08 0.00191314 -3.54094e-08
-1.67132e-08 0.00191313 -3.53444e-08
-1.68769e-08 0.00191314 -3.54327e-08
-1.64988e-08 0.00191313 -3.54174e-08
-1.65221e-08 0.00191314 -3.52696e-08
-1.64565e-08 0.00191314 -3.5436e-08
-1.66486e-08 0.00191314 -3.54384e-08
-1.67511e-08 0.00191314 -3.54242e-08
-1.6591e-08 0.00191314 -3.5504e-08
-1.6624e-08 0.00191313 -3.53519e-08
-1.65582e-08 0.00191314 -3.53189e-08
-1.65956e-08 0.00191314 -3.53966e-08
-1.65701e-08 0.00191314 -3.53701e-08
-1.66774e-08 0.00278245 -3.48046e-08
-1.72647e-08 0.00278245 -3.50747e-08
-1.78151e-08 0.00278245 -3.51137e-08
-1.80148e-08 0.00278245 -3.51557e-08
-1.79052e-08 0.00278245 -3.49238e-08
-1.71283e-08 0.00278245 -3.48979e-08
-1.73561e-08 0.00278245 -3.50636e-08
-1.74608e-08 0.00278245 -3.49246e-08
-1.77709e-08 0.00278245 -3.50372e-08
-1.83433e-08 0.00278245 -3.49621e-08
-1.72019e-08 0.00278245 -3.49212e-08
-1.73479e-08 0.00278245 -3.48325e-08
-1.74154e-08 0.00278245 -3.50143e-08
-1.78099e-08 0.00278245 -3.49984e-08
-1.81843e-08 0.00278245 -3.49577e-08
-1.75296e-08 0.00278245 -3.46964e-08
-1.74124e-08 0.00278245 -3.47995e-08
-1.75673e-08 0.00278245 -3.48536e-08
-1.77667e-08 0.00278245 -3.48788e-08
-1.78572e-08 0.00278245 -3.49282e-08
-1.70723e-08 0.00278245 -3.46674e-08
-1.73211e-08 0.00278245 -3.47396e-08
-1.75987e-08 0.00278245 -3.48741e-08
-1.76996e-08 0.00278245 -3.48422e-08
-1.80457e-08 0.00278245 -3.48341e-08
-1.779e-08 0.00364553 -3.35824e-08
-1.79827e-08 0.00364552 -3.36842e-08
-1.82688e-08 0.00364552 -3.37061e-08
-1.87016e-08 0.00364552 -3.35437e-08
-1.93927e-08 0.00364552 -3.35927e-08
-1.76422e-08 0.00364552 -3.34778e-08
-1.80156e-08 0.00364552 -3.34734e-08
-1.85569e-08 0.00364552 -3.37042e-08
-1.87874e-08 0.00364552 -3.37869e-08
-1.93566e-08 0.00364552 -3.37449e-08
-1.78516e-08 0.00364552 -3.329e-08
-1.81407e-08 0.00364552 -3.3477e-08
-1.84424e-08 0.00364552 -3.35903e-08
-1.88351e-08 0.00364552 -3.39139e-08
-1.93968e-08 0.00364552 -3.36557e-08
-1.77622e-08 0.00364552 -3.32851e-08
-1.82077e-08 0.00364552 -3.34687e-08
-1.83772e-08 0.00364552 -3.34743e-08
-1.88112e-08 0.00364552 -3.3477e-08
-1.91391e-08 0.00364552 -3.34929e-08
-1.76698e-08 0.00364552 -3.29891e-08
-1.82867e-08 0.00364552 -3.3344e-08
-1.85966e-08 0.00364552 -3.31741e-08
-1.86026e-08 0.00364552 -3.34347e-08
-1.90546e-08 0.00364552 -3.33786e-08
-1.77085e-08 0.00445924 -3.10428e-08
-1.85192e-08 0.00445924 -3.11136e-08
-1.90407e-08 0.00445924 -3.10281e-08
-1.99692e-08 0.00445924 -3.16517e-08
-1.98364e-08 0.00445924 -3.16206e-08
-1.79473e-08 0.00445924 -3.12615e-08
-1.8663e-08 0.00445924 -3.13258e-08
-1.9189e-08 0.00445924 -3.14258e-08
-1.96742e-08 0.00445924 -3.13645e-08
-2.05405e-08 0.00445924 -3.14819e-08
-1.78436e-08 0.00445924 -3.11746e-08
-1.88063e-08 0.00445924 -3.1326e-08
-1.91532e-08 0.00445924 -3.13168e-08
-1.97738e-08 0.00445924 -3.13989e-08
-2.02218e-08 0.00445924 -3.12486e-08
-1.77368e-08 0.00445924 -3.11008e-08
-1.88019e-08 0.00445924 -3.10327e-08
-1.91003e-08 0.00445924 -3.10389e-08
-1.95891e-08 0.00445924 -3.1224e-08
-2.02417e-08 0.00445924 -3.1227e-08
-1.82271e-08 0.00445924 -3.10145e-08
-1.8543e-08 0.00445924 -3.09151e-08
-1.88725e-08 0.00445924 -3.09706e-08
-1.93771e-08 0.00445924 -3.11558e-08
-2.00222e-08 0.00445924 -3.10287e-08
-1.84108e-08 0.00518368 -2.81609e-08
-1.88619e-08 0.00518367 -2.82743e-08
-1.96457e-08 0.00518368 -2.8174e-08
-2.01867e-08 0.00518368 -2.82809e-08
-2.05517e-08 0.00518368 -2.77994e-08
-1.83791e-08 0.00518367 -2.81567e-08
-1.88355e-08 0.00518368 -2.82302e-08
-1.96354e-08 0.00518367 -2.81886e-08
-2.01849e-08 0.00518367 -2.83241e-08
-2.06947e-08 0.00518367 -2.81679e-08
-1.84625e-08 0.00518367 -2.81753e-08
-1.8879e-08 0.00518368 -2.81766e-08
-1.95384e-08 0.00518367 -2.81967e-08
-2.02417e-08 0.00518367 -2.82407e-08
-2.10624e-08 0.00518367 -2.82166e-08
-1.7896e-08 0.00518367 -2.79977e-08
-1.88797e-08 0.00518367 -2.80922e-08
-1.95347e-08 0.00518367 -2.79661e-08
-2.03311e-08 0.00518367 -2.81185e-08
-2.07981e-08 0.00518367 -2.82326e-08
-1.81437e-08 0.00518368 -2.81473e-08
-1.88112e-08 0.00518367 -2.77647e-08
-1.96155e-08 0.00518367 -2.80382e-08
-2.00822e-08 0.00518367 -2.80247e-08
-2.08855e-08 0.00518367 -2.80142e-08
-1.73274e-08 0.00578624 -2.43528e-08
-1.85728e-08 0.00578624 -2.44896e-08
-1.96844e-08 0.00578624 -2.42479e-08
-2.04027e-08 0.00578624 -2.39398e-08
-2.08983e-08 0.00578624 -2.38725e-08
-1.79417e-08 0.00578624 -2.45317e-08
-1.88523e-08 0.00578624 -2.44588e-08
-1.9598e-08 0.00578624 -2.42755e-08
-2.0349e-08 0.00578624 -2.42849e-08
-2.09282e-08 0.00578624 -2.42458e-08
-1.77678e-08 0.00578624 -2.41881e-08
-1.87114e-08 0.00578624 -2.42372e-08
-1.96993e-08 0.00578624 -2.42186e-08
-2.04277e-08 0.00578624 -2.42152e-08
-2.09033e-08 0.00578624 -2.4423e-08
-1.81162e-08 0.00578624 -2.42312e-08
-1.88655e-08 0.00578624 -2.42031e-08
-1.96528e-08 0.00578624 -2.42145e-08
-2.03985e-08 0.00578624 -2.4261e-08
-2.14792e-08 0.00578624 -2.42386e-08
-1.81139e-08 0.00578624 -2.45802e-08
-1.88852e-08 0.00578624 -2.41238e-08
-1.96713e-08 0.00578624 -2.37662e-08
-2.03924e-08 0.00578624 -2.41083e-08
-2.1255e-08 0.00578624 -2.4575e-08
-1.76817e-08 0.00624621 -1.99199e-08
-1.79887e-08 0.00624621 -1.9528e-08
-1.90757e-08 0.00624621 -1.9367e-08
-2.03818e-08 0.00624621 -1.95328e-08
-2.05994e-08 0.00624621 -2.00122e-08
-1.70909e-08 0.00624621 -1.94997e-08
-1.8452e-08 0.0062462 -1.96482e-08
-1.92761e-08 0.0062462 -1.95636e-08
-2.02283e-08 0.00624621 -1.96299e-08
-2.10464e-08 0.00624621 -1.96251e-08
-1.76638e-08 0.00624621 -1.95368e-08
-1.84745e-08 0.0062462 -1.9648e-08
-1.94505e-08 0.0062462 -1.9666e-08
-2.02633e-08 0.0062462 -1.96275e-08
-2.1249e-08 0.0062462 -1.95967e-08
-1.7468e-08 0.0062462 -1.96482e-08
-1.84849e-08 0.0062462 -1.96889e-08
-1.93626e-08 0.0062462 -1.95174e-08
-2.04745e-08 0.0062462 -1.97308e-08
-2.11626e-08 0.0062462 -1.98529e-08
-1.74791e-08 0.0062462 -1.98984e-08
-1.85614e-08 0.0062462 -1.95883e-08
-1.93236e-08 0.0062462 -1.98326e-08
-2.05658e-08 0.0062462 -1.97723e-08
-2.10047e-08 0.0062462 -1.97167e-08
-1.69992e-08 0.00655925 -1.43749e-08
-1.77381e-08 0.00655925 -1.41539e-08
-1.85981e-08 0.00655925 -1.43824e-08
-1.94646e-08 0.00655925 -1.44362e-08
-2.08907e-08 0.00655925 -1.45257e-08
-1.66312e-08 0.00655925 -1.43004e-08
-1.78652e-08 0.00655925 -1.43346e-08
-1.87292e-08 0.00655925 -1.43829e-08
-1.98305e-08 0.00655925 -1.45188e-08
-2.0736e-08 0.00655925 -1.47152e-08
-1.66913e-08 0.00655925 -1.44824e-08
-1.78661e-08 0.00655925 -1.43084e-08
-1.88747e-08 0.00655925 -1.45515e-08
-1.99408e-08 0.00655925 -1.44591e-08
-2.07642e-08 0.00655925 -1.46174e-08
-1.68451e-08 0.00655925 -1.45036e-08
-1.78997e-08 0.00655925 -1.47031e-08
-1.89719e-08 0.00655925 -1.46671e-08
-1.99284e-08 0.00655925 -1.47099e-08
-2.09636e-08 0.00655925 -1.45935e-08
-1.70212e-08 0.00655925 -1.43409e-08
-1.79286e-08 0.00655925 -1.47148e-08
-1.90051e-08 0.00655925 -1.48031e-08
-1.98037e-08 0.00655924 -1.46335e-08
-2.10702e-08 0.00655925 -1.45697e-08
-1.56513e-08 0.00674172 -8.43491e-09
-1.69054e-08 0.00674172 -8.24872e-09
-1.79046e-08 0.00674172 -8.74677e-09
-1.91957e-08 0.00674172 -8.82091e-09
-1.93968e-08 0.00674173 -8.92858e-09
-1.60888e-08 0.00674172 -8.4499e-09
-1.6987e-08 0.00674172 -8.42762e-09
-1.81497e-08 0.00674172 -8.74005e-09
-1.91368e-08 0.00674172 -8.90735e-09
-2.01132e-08 0.00674172 -9.0206e-09
-1.59766e-08 0.00674172 -8.75852e-09
-1.72093e-08 0.00674172 -8.82297e-09
-1.82694e-08 0.00674172 -8.9365e-09
-1.92416e-08 0.00674172 -9.07894e-09
-2.00791e-08 0.00674172 -9.08329e-09
-1.60739e-08 0.00674172 -8.96954e-09
-1.71767e-08 0.00674172 -9.04136e-09
-1.82523e-08 0.00674172 -9.06593e-09
-1.93021e-08 0.00674172 -8.97885e-09
-2.02261e-08 0.00674172 -9.0308e-09
-1.58839e-08 0.00674172 -9.11356e-09
-1.72213e-08 0.00674172 -9.16973e-09
-1.82878e-08 0.00674172 -9.07057e-09
-1.92774e-08 0.00674172 -9.12598e-09
-2.02268e-08 0.00674172 -8.82149e-09
-1.46389e-08 0.00683411 -2.50343e-09
-1.58072e-08 0.00683411 -2.50071e-09
-1.72377e-08 0.00683411 -2.74629e-09
-1.82867e-08 0.00683412 -2.9769e-09
-1.88425e-08 0.00683411 -2.57903e-09
-1.44989e-08 0.00683411 -2.48328e-09
-1.60667e-08 0.00683411 -2.53725e-09
-1.73211e-08 0.00683412 -2.92136e-09
-1.81347e-08 0.00683411 -2.86736e-09
-1.89098e-08 0.00683411 -2.89824e-09
-1.50161e-08 0.00683411 -2.69697e-09
-1.61586e-08 0.00683411 -2.54957e-09
-1.71781e-08 0.00683411 -3.01749e-09
-1.82554e-08 0.00683411 -3.06352e-09
-1.9187e-08 0.00683411 -2.96547e-09
-1.52748e-08 0.00683411 -2.93459e-09
-1.61799e-08 0.00683411 -2.8893e-09
-1.72053e-08 0.00683411 -3.03536e-09
-1.82137e-08 0.00683411 -3.01889e-09
-1.92165e-08 0.00683411 -3.19544e-09
-1.51415e-08 0.00683411 -2.75524e-09
-1.62214e-08 0.0068341 -3.22713e-09
-1.6978e-08 0.0068341 -3.00249e-09
-1.83106e-08 0.0068341 -3.10053e-09
-1.90917e-08 0.00683411 -2.81708e-09
-1.33178e-08 0.00690317 3.49881e-09
-1.43649e-08 0.00690317 3.10615e-09
-1.57285e-08 0.00690318 3.484e-09
-1.66059e-08 0.00690317 3.19029e-09
-1.76609e-08 0.00690317 3.87075e-09