<?xml version="1.0"?>
<VTKFile type="UnstructuredGrid" version="0.1" byte_order="LittleEndian">
<UnstructuredGrid>
<Piece NumberOfPoints="1025" NumberOfCells="640">
<Points>
<DataArray type="Float32" NumberOfComponents="3" format="ascii">
0 0 0
0.025 0 0
0.05 0 0
0.075 0 0
0.1 0 0
0 0.025 0
0.025 0.025 0
0.05 0.025 0
0.075 0.025 0
0.1 0.025 0
0 0.05 0
0.025 0.05 0
0.05 0.05 0
0.075 0.05 0
0.1 0.05 0
0 0.075 0
0.025 0.075 0
0.05 0.075 0
0.075 0.075 0
0.1 0.075 0
0 0.1 0
0.025 0.1 0
0.05 0.1 0
0.075 0.1 0
0.1 0.1 0
0 0 0.025
0.025 0 0.025
0.05 0 0.025
0.075 0 0.025
0.1 0 0.025
0 0.025 0.025
0.025 0.025 0.025
0.05 0.025 0.025
0.075 0.025 0.025
0.1 0.025 0.025
0 0.05 0.025
0.025 0.05 0.025
0.05 0.05 0.025
0.075 0.05 0.025
0.1 0.05 0.025
0 0.075 0.025
0.025 0.075 0.025
0.05 0.075 0.025
0.075 0.075 0.025
0.1 0.075 0.025
0 0.1 0.025
0.025 0.1 0.025
0.05 0.1 0.025
0.075 0.1 0.025
0.1 0.1 0.025
0 0 0.05
0.025 0 0.05
0.05 0 0.05
0.075 0 0.05
0.1 0 0.05
0 0.025 0.05
0.025 0.025 0.05
0.05 0.025 0.05
0.075 0.025 0.05
0.1 0.025 0.05
0 0.05 0.05
0.025 0.05 0.05
0.05 0.05 0.05
0.075 0.05 0.05
0.1 0.05 0.05
0 0.075 0.05
0.025 0.075 0.05
0.05 0.075 0.05
0.075 0.075 0.05
0.1 0.075 0.05
0 0.1 0.05
0.025 0.1 0.05
0.05 0.1 0.05
0.075 0.1 0.05
0.1 0.1 0.05
0 0 0.075
0.025 0 0.075
0.05 0 0.075
0.075 0 0.075
0.1 0 0.075
0 0.025 0.075
0.025 0.025 0.075
0.05 0.025 0.075
0.075 0.025 0.075
0.1 0.025 0.075
0 0.05 0.075
0.025 0.05 0.075
0.05 0.05 0.075
0.075 0.05 0.075
0.1 0.05 0.075
0 0.075 0.075
0.025 0.075 0.075
0.05 0.075 0.075
0.075 0.075 0.075
0.1 0.075 0.075
0 0.1 0.075
0.025 0.1 0.075
0.05 0.1 0.075
0.075 0.1 0.075
0.1 0.1 0.075
0 0 0.1
0.025 0 0.1
0.05 0 0.1
0.075 0 0.1
0.1 0 0.1
0 0.025 0.1
0.025 0.025 0.1
0.05 0.025 0.1
0.075 0.025 0.1
0.1 0.025 0.1
0 0.05 0.1
0.025 0.05 0.1
0.05 0.05 0.1
0.075 0.05 0.1
0.1 0.05 0.1
0 0.075 0.1
0.025 0.075 0.1
0.05 0.075 0.1
0.075 0.075 0.1
0.1 0.075 0.1
0 0.1 0.1
0.025 0.1 0.1
0.05 0.1 0.1
0.075 0.1 0.1
0.1 0.1 0.1
0 0 0.125
0.025 0 0.125
0.05 0 0.125
0.075 0 0.125
0.1 0 0.125
0 0.025 0.125
0.025 0.025 0.125
0.05 0.025 0.125
0.075 0.025 0.125
0.1 0.025 0.125
0 0.05 0.125
0.025 0.05 0.125
0.05 0.05 0.125
0.075 0.05 0.125
0.1 0.05 0.125
0 0.075 0.125
0.025 0.075 0.125
0.05 0.075 0.125
0.075 0.075 0.125
0.1 0.075 0.125
0 0.1 0.125
0.025 0.1 0.125
0.05 0.1 0.125
0.075 0.1 0.125
0.1 0.1 0.125
0 0 0.15
0.025 0 0.15
0.05 0 0.15
0.075 0 0.15
0.1 0 0.15
0 0.025 0.15
0.025 0.025 0.15
0.05 0.025 0.15
0.075 0.025 0.15
0.1 0.025 0.15
0 0.05 0.15
0.025 0.05 0.15
0.05 0.05 0.15
0.075 0.05 0.15
0.1 0.05 0.15
0 0.075 0.15
0.025 0.075 0.15
0.05 0.075 0.15
0.075 0.075 0.15
0.1 0.075 0.15
0 0.1 0.15
0.025 0.1 0.15
0.05 0.1 0.15
0.075 0.1 0.15
0.1 0.1 0.15
0 0 0.175
0.025 0 0.175
0.05 0 0.175
0.075 0 0.175
0.1 0 0.175
0 0.025 0.175
0.025 0.025 0.175
0.05 0.025 0.175
0.075 0.025 0.175
0.1 0.025 0.175
0 0.05 0.175
0.025 0.05 0.175
0.05 0.05 0.175
0.075 0.05 0.175
0.1 0.05 0.175
0 0.075 0.175
0.025 0.075 0.175
0.05 0.075 0.175
0.075 0.075 0.175
0.1 0.075 0.175
0 0.1 0.175
0.025 0.1 0.175
0.05 0.1 0.175
0.075 0.1 0.175
0.1 0.1 0.175
0 0 0.2
0.025 0 0.2
0.05 0 0.2
0.075 0 0.2
0.1 0 0.2
0 0.025 0.2
0.025 0.025 0.2
0.05 0.025 0.2
0.075 0.025 0.2
0.1 0.025 0.2
0 0.05 0.2
0.025 0.05 0.2
0.05 0.05 0.2
0.075 0.05 0.2
0.1 0.05 0.2
0 0.075 0.2
0.025 0.075 0.2
0.05 0.075 0.2
0.075 0.075 0.2
0.1 0.075 0.2
0 0.1 0.2
0.025 0.1 0.2
0.05 0.1 0.2
0.075 0.1 0.2
0.1 0.1 0.2
0 0 0.225
0.025 0 0.225
0.05 0 0.225
0.075 0 0.225
0.1 0 0.225
0 0.025 0.225
0.025 0.025 0.225
0.05 0.025 0.225
0.075 0.025 0.225
0.1 0.025 0.225
0 0.05 0.225
0.025 0.05 0.225
0.05 0.05 0.225
0.075 0.05 0.225
0.1 0.05 0.225
0 0.075 0.225
0.025 0.075 0.225
0.05 0.075 0.225
0.075 0.075 0.225
0.1 0.075 0.225
0 0.1 0.225
0.025 0.1 0.225
0.05 0.1 0.225
0.075 0.1 0.225
0.1 0.1 0.225
0 0 0.25
0.025 0 0.25
0.05 0 0.25
0.075 0 0.25
0.1 0 0.25
0 0.025 0.25
0.025 0.025 0.25
0.05 0.025 0.25
0.075 0.025 0.25
0.1 0.025 0.25
0 0.05 0.25
0.025 0.05 0.25
0.05 0.05 0.25
0.075 0.05 0.25
0.1 0.05 0.25
0 0.075 0.25
0.025 0.075 0.25
0.05 0.075 0.25
0.075 0.075 0.25
0.1 0.075 0.25
0 0.1 0.25
0.025 0.1 0.25
0.05 0.1 0.25
0.075 0.1 0.25
0.1 0.1 0.25
0 0 0.275
0.025 0 0.275
0.05 0 0.275
0.075 0 0.275
0.1 0 0.275
0 0.025 0.275
0.025 0.025 0.275
0.05 0.025 0.275
0.075 0.025 0.275
0.1 0.025 0.275
0 0.05 0.275
0.025 0.05 0.275
0.05 0.05 0.275
0.075 0.05 0.275
0.1 0.05 0.275
0 0.075 0.275
0.025 0.075 0.275
0.05 0.075 0.275
0.075 0.075 0.275
0.1 0.075 0.275
0 0.1 0.275
0.025 0.1 0.275
0.05 0.1 0.275
0.075 0.1 0.275
0.1 0.1 0.275
0 0 0.3
0.025 0 0.3
0.05 0 0.3
0.075 0 0.3
0.1 0 0.3
0 0.025 0.3
0.025 0.025 0.3
0.05 0.025 0.3
0.075 0.025 0.3
0.1 0.025 0.3
0 0.05 0.3
0.025 0.05 0.3
0.05 0.05 0.3
0.075 0.05 0.3
0.1 0.05 0.3
0 0.075 0.3
0.025 0.075 0.3
0.05 0.075 0.3
0.075 0.075 0.3
0.1 0.075 0.3
0 0.1 0.3
0.025 0.1 0.3
0.05 0.1 0.3
0.075 0.1 0.3
0.1 0.1 0.3
0 0 0.325
0.025 0 0.325
0.05 0 0.325
0.075 0 0.325
0.1 0 0.325
0 0.025 0.325
0.025 0.025 0.325
0.05 0.025 0.325
0.075 0.025 0.325
0.1 0.025 0.325
0 0.05 0.325
0.025 0.05 0.325
0.05 0.05 0.325
0.075 0.05 0.325
0.1 0.05 0.325
0 0.075 0.325
0.025 0.075 0.325
0.05 0.075 0.325
0.075 0.075 0.325
0.1 0.075 0.325
0 0.1 0.325
0.025 0.1 0.325
0.05 0.1 0.325
0.075 0.1 0.325
0.1 0.1 0.325
0 0 0.35
0.025 0 0.35
0.05 0 0.35
0.075 0 0.35
0.1 0 0.35
0 0.025 0.35
0.025 0.025 0.35
0.05 0.025 0.35
0.075 0.025 0.35
0.1 0.025 0.35
0 0.05 0.35
0.025 0.05 0.35
0.05 0.05 0.35
0.075 0.05 0.35
0.1 0.05 0.35
0 0.075 0.35
0.025 0.075 0.35
0.05 0.075 0.35
0.075 0.075 0.35
0.1 0.075 0.35
0 0.1 0.35
0.025 0.1 0.35
0.05 0.1 0.35
0.075 0.1 0.35
0.1 0.1 0.35
0 0 0.375
0.025 0 0.375
0.05 0 0.375
0.075 0 0.375
0.1 0 0.375
0 0.025 0.375
0.025 0.025 0.375
0.05 0.025 0.375
0.075 0.025 0.375
0.1 0.025 0.375
0 0.05 0.375
0.025 0.05 0.375
0.05 0.05 0.375
0.075 0.05 0.375
0.1 0.05 0.375
0 0.075 0.375
0.025 0.075 0.375
0.05 0.075 0.375
0.075 0.075 0.375
0.1 0.075 0.375
0 0.1 0.375
0.025 0.1 0.375
0.05 0.1 0.375
0.075 0.1 0.375
0.1 0.1 0.375
0 0 0.4
0.025 0 0.4
0.05 0 0.4
0.075 0 0.4
0.1 0 0.4
0 0.025 0.4
0.025 0.025 0.4
0.05 0.025 0.4
0.075 0.025 0.4
0.1 0.025 0.4
0 0.05 0.4
0.025 0.05 0.4
0.05 0.05 0.4
0.075 0.05 0.4
0.1 0.05 0.4
0 0.075 0.4
0.025 0.075 0.4
0.05 0.075 0.4
0.075 0.075 0.4
0.1 0.075 0.4
0 0.1 0.4
0.025 0.1 0.4
0.05 0.1 0.4
0.075 0.1 0.4
0.1 0.1 0.4
0 0 0.425
0.025 0 0.425
0.05 0 0.425
0.075 0 0.425
0.1 0 0.425
0 0.025 0.425
0.025 0.025 0.425
0.05 0.025 0.425
0.075 0.025 0.425
0.1 0.025 0.425
0 0.05 0.425
0.025 0.05 0.425
0.05 0.05 0.425
0.075 0.05 0.425
0.1 0.05 0.425
0 0.075 0.425
0.025 0.075 0.425
0.05 0.075 0.425
0.075 0.075 0.425
0.1 0.075 0.425
0 0.1 0.425
0.025 0.1 0.425
0.05 0.1 0.425
0.075 0.1 0.425
0.1 0.1 0.425
0 0 0.45
0.025 0 0.45
0.05 0 0.45
0.075 0 0.45
0.1 0 0.45
0 0.025 0.45
0.025 0.025 0.45
0.05 0.025 0.45
0.075 0.025 0.45
0.1 0.025 0.45
0 0.05 0.45
0.025 0.05 0.45
0.05 0.05 0.45
0.075 0.05 0.45
0.1 0.05 0.45
0 0.075 0.45
0.025 0.075 0.45
0.05 0.075 0.45
0.075 0.075 0.45
0.1 0.075 0.45
0 0.1 0.45
0.025 0.1 0.45
0.05 0.1 0.45
0.075 0.1 0.45
0.1 0.1 0.45
0 0 0.475
0.025 0 0.475
0.05 0 0.475
0.075 0 0.475
0.1 0 0.475
0 0.025 0.475
0.025 0.025 0.475
0.05 0.025 0.475
0.075 0.025 0.475
0.1 0.025 0.475
0 0.05 0.475
0.025 0.05 0.475
0.05 0.05 0.475
0.075 0.05 0.475
0.1 0.05 0.475
0 0.075 0.475
0.025 0.075 0.475
0.05 0.075 0.475
0.075 0.075 0.475
0.1 0.075 0.475
0 0.1 0.475
0.025 0.1 0.475
0.05 0.1 0.475
0.075 0.1 0.475
0.1 0.1 0.475
0 0 0.5
0.025 0 0.5
0.05 0 0.5
0.075 0 0.5
0.1 0 0.5
0 0.025 0.5
0.025 0.025 0.5
0.05 0.025 0.5
0.075 0.025 0.5
0.1 0.025 0.5
0 0.05 0.5
0.025 0.05 0.5
0.05 0.05 0.5
0.075 0.05 0.5
0.1 0.05 0.5
0 0.075 0.5
0.025 0.075 0.5
0.05 0.075 0.5
0.075 0.075 0.5
0.1 0.075 0.5
0 0.1 0.5
0.025 0.1 0.5
0.05 0.1 0.5
0.075 0.1 0.5
0.1 0.1 0.5
0 0 0.525
0.025 0 0.525
0.05 0 0.525
0.075 0 0.525
0.1 0 0.525
0 0.025 0.525
0.025 0.025 0.525
0.05 0.025 0.525
0.075 0.025 0.525
0.1 0.025 0.525
0 0.05 0.525
0.025 0.05 0.525
0.05 0.05 0.525
0.075 0.05 0.525
0.1 0.05 0.525
0 0.075 0.525
0.025 0.075 0.525
0.05 0.075 0.525
0.075 0.075 0.525
0.1 0.075 0.525
0 0.1 0.525
0.025 0.1 0.525
0.05 0.1 0.525
0.075 0.1 0.525
0.1 0.1 0.525
0 0 0.55
0.025 0 0.55
0.05 0 0.55
0.075 0 0.55
0.1 0 0.55
0 0.025 0.55
0.025 0.025 0.55
0.05 0.025 0.55
0.075 0.025 0.55
0.1 0.025 0.55
0 0.05 0.55
0.025 0.05 0.55
0.05 0.05 0.55
0.075 0.05 0.55
0.1 0.05 0.55
0 0.075 0.55
0.025 0.075 0.55
0.05 0.075 0.55
0.075 0.075 0.55
0.1 0.075 0.55
0 0.1 0.55
0.025 0.1 0.55
0.05 0.1 0.55
0.075 0.1 0.55
0.1 0.1 0.55
0 0 0.575
0.025 0 0.575
0.05 0 0.575
0.075 0 0.575
0.1 0 0.575
0 0.025 0.575
0.025 0.025 0.575
0.05 0.025 0.575
0.075 0.025 0.575
0.1 0.025 0.575
0 0.05 0.575
0.025 0.05 0.575
0.05 0.05 0.575
0.075 0.05 0.575
0.1 0.05 0.575
0 0.075 0.575
0.025 0.075 0.575
0.05 0.075 0.575
0.075 0.075 0.575
0.1 0.075 0.575
0 0.1 0.575
0.025 0.1 0.575
0.05 0.1 0.575
0.075 0.1 0.575
0.1 0.1 0.575
0 0 0.6
0.025 0 0.6
0.05 0 0.6
0.075 0 0.6
0.1 0 0.6
0 0.025 0.6
0.025 0.025 0.6
0.05 0.025 0.6
0.075 0.025 0.6
0.1 0.025 0.6
0 0.05 0.6
0.025 0.05 0.6
0.05 0.05 0.6
0.075 0.05 0.6
0.1 0.05 0.6
0 0.075 0.6
0.025 0.075 0.6
0.05 0.075 0.6
0.075 0.075 0.6
0.1 0.075 0.6
0 0.1 0.6
0.025 0.1 0.6
0.05 0.1 0.6
0.075 0.1 0.6
0.1 0.1 0.6
0 0 0.625
0.025 0 0.625
0.05 0 0.625
0.075 0 0.625
0.1 0 0.625
0 0.025 0.625
0.025 0.025 0.625
0.05 0.025 0.625
0.075 0.025 0.625
0.1 0.025 0.625
0 0.05 0.625
0.025 0.05 0.625
0.05 0.05 0.625
0.075 0.05 0.625
0.1 0.05 0.625
0 0.075 0.625
0.025 0.075 0.625
0.05 0.075 0.625
0.075 0.075 0.625
0.1 0.075 0.625
0 0.1 0.625
0.025 0.1 0.625
0.05 0.1 0.625
0.075 0.1 0.625
0.1 0.1 0.625
0 0 0.65
0.025 0 0.65
0.05 0 0.65
0.075 0 0.65
0.1 0 0.65
0 0.025 0.65
0.025 0.025 0.65
0.05 0.025 0.65
0.075 0.025 0.65
0.1 0.025 0.65
0 0.05 0.65
0.025 0.05 0.65
0.05 0.05 0.65
0.075 0.05 0.65
0.1 0.05 0.65
0 0.075 0.65
0.025 0.075 0.65
0.05 0.075 0.65
0.075 0.075 0.65
0.1 0.075 0.65
0 0.1 0.65
0.025 0.1 0.65
0.05 0.1 0.65
0.075 0.1 0.65
0.1 0.1 0.65
0 0 0.675
0.025 0 0.675
0.05 0 0.675
0.075 0 0.675
0.1 0 0.675
[...]
<PointData Vectors="Displacement">
<DataArray type="Float32" Name="Displacement" NumberOfComponents="3" format="ascii">
0 0 0
0 0 0
0 0 0
0 0 0
0 0 0
0 0 0
0 0 0
0 0 0
0 0 0
0 0 0
0 0 0
0 0 0
0 0 0
0 0 0
0 0 0
0 0 0
0 0 0
0 0 0
0 0 0
0 0 0
0 0 0
0 0 0
0 0 0
0 0 0
0 0 0
4.10524e-10 0.00157323 -1.32852e-09
6.78266e-10 0.00157323 -1.37408e-09
8.61405e-10 0.00157323 -1.35511e-09
1.00502e-09 0.00157323 -1.33382e-09
1.29286e-09 0.00157323 -1.34935e-09
4.03714e-10 0.00157323 -1.35995e-09
6.8468e-10 0.00157323 -1.36528e-09
8.40901e-10 0.00157323 -1.37718e-09
1.01399e-09 0.00157323 -1.35635e-09
1.31465e-09 0.00157323 -1.36614e-09
4.21775e-10 0.00157323 -1.36142e-09
6.7201e-10 0.00157323 -1.3686e-09
8.40196e-10 0.00157323 -1.37979e-09
1.02468e-09 0.00157323 -1.3839e-09
1.31335e-09 0.00157323 -1.36525e-09
4.41935e-10 0.00157323 -1.34472e-09
6.84883e-10 0.00157323 -1.35772e-09
8.67946e-10 0.00157323 -1.35247e-09
1.01051e-09 0.00157323 -1.34041e-09
1.24095e-09 0.00157323 -1.35043e-09
5.03083e-10 0.00157323 -1.35808e-09
7.04598e-10 0.00157323 -1.31567e-09
8.6021e-10 0.00157323 -1.33741e-09
9.90768e-10 0.00157323 -1.30622e-09
1.24145e-09 0.00157323 -1.31405e-09
1.12638e-09 0.00314623 -2.80614e-09
1.4314e-09 0.00314623 -2.78476e-09
1.71479e-09 0.00314623 -2.80688e-09
1.99657e-09 0.00314623 -2.85367e-09
2.25541e-09 0.00314623 -2.8746e-09
1.09356e-09 0.00314623 -2.82758e-09
1.43913e-09 0.00314623 -2.8159e-09
1.70023e-09 0.00314623 -2.82072e-09
1.9987e-09 0.00314623 -2.83359e-09
2.31385e-09 0.00314623 -2.84613e-09
1.08425e-09 0.00314623 -2.82666e-09
1.42532e-09 0.00314623 -2.82788e-09
1.69247e-09 0.00314623 -2.86304e-09
1.9749e-09 0.00314623 -2.81345e-09
2.43486e-09 0.00314623 -2.82751e-09
1.20348e-09 0.00314623 -2.83017e-09
1.40386e-09 0.00314623 -2.82767e-09
1.71666e-09 0.00314623 -2.82117e-09
1.96063e-09 0.00314623 -2.83576e-09
2.29496e-09 0.00314623 -2.8258e-09
1.18154e-09 0.00314623 -2.82803e-09
1.46024e-09 0.00314623 -2.87422e-09
1.70222e-09 0.00314623 -2.79364e-09
1.97647e-09 0.00314623 -2.78788e-09
2.15585e-09 0.00314623 -2.81581e-09
1.89141e-09 0.00471829 -4.36765e-09
2.26725e-09 0.00471828 -4.34697e-09
2.57466e-09 0.00471828 -4.38401e-09
2.87598e-09 0.00471828 -4.40163e-09
3.3047e-09 0.00471828 -4.41595e-09
1.86826e-09 0.00471828 -4.35173e-09
2.23008e-09 0.00471828 -4.40818e-09
2.58682e-09 0.00471828 -4.40852e-09
2.90573e-09 0.00471828 -4.40772e-09
3.37907e-09 0.00471828 -4.42464e-09
1.92761e-09 0.00471828 -4.42205e-09
2.20767e-09 0.00471828 -4.37971e-09
2.55904e-09 0.00471828 -4.38578e-09
2.93587e-09 0.00471828 -4.38378e-09
3.36332e-09 0.00471828 -4.41035e-09
1.92328e-09 0.00471828 -4.45933e-09
2.24324e-09 0.00471828 -4.45203e-09
2.55151e-09 0.00471828 -4.41191e-09
2.92211e-09 0.00471828 -4.36682e-09
3.26694e-09 0.00471828 -4.41156e-09
1.91215e-09 0.00471829 -4.46381e-09
2.23552e-09 0.00471829 -4.48218e-09
2.59155e-09 0.00471828 -4.43611e-09
2.87776e-09 0.00471828 -4.44542e-09
3.26186e-09 0.00471828 -4.40196e-09
2.80129e-09 0.00628785 -6.10753e-09
3.11265e-09 0.00628785 -6.08797e-09
3.48724e-09 0.00628785 -6.15806e-09
3.8466e-09 0.00628785 -6.10236e-09
4.32365e-09 0.00628785 -6.14976e-09
2.66505e-09 0.00628785 -6.10606e-09
3.08291e-09 0.00628785 -6.1386e-09
3.46351e-09 0.00628785 -6.15972e-09
3.88226e-09 0.00628785 -6.15062e-09
4.36573e-09 0.00628785 -6.14319e-09
2.64946e-09 0.00628785 -6.16924e-09
3.08382e-09 0.00628785 -6.14673e-09
3.49178e-09 0.00628785 -6.1989e-09
3.87998e-09 0.00628785 -6.10576e-09
4.42618e-09 0.00628785 -6.15999e-09
2.71036e-09 0.00628785 -6.16629e-09
3.07574e-09 0.00628785 -6.16993e-09
3.47123e-09 0.00628785 -6.15423e-09
3.87005e-09 0.00628785 -6.13818e-09
4.3502e-09 0.00628785 -6.12819e-09
2.71568e-09 0.00628785 -6.23355e-09
3.07636e-09 0.00628785 -6.17781e-09
3.47146e-09 0.00628785 -6.19586e-09
3.89277e-09 0.00628785 -6.04085e-09
4.28081e-09 0.00628785 -6.12955e-09
3.45385e-09 0.00785244 -7.91446e-09
4.00575e-09 0.00785244 -8.0158e-09
4.38206e-09 0.00785244 -8.10405e-09
4.85533e-09 0.00785244 -8.06953e-09
5.54584e-09 0.00785244 -7.93148e-09
3.55787e-09 0.00785244 -7.97284e-09
3.93157e-09 0.00785244 -7.99176e-09
4.41586e-09 0.00785244 -8.04366e-09
4.88654e-09 0.00785244 -8.0489e-09
5.39668e-09 0.00785244 -8.01176e-09
3.46881e-09 0.00785244 -8.04917e-09
3.88611e-09 0.00785244 -8.05038e-09
4.43482e-09 0.00785244 -8.03077e-09
4.82789e-09 0.00785244 -8.02607e-09
5.49622e-09 0.00785244 -7.93379e-09
3.49941e-09 0.00785244 -8.01446e-09
4.02675e-09 0.00785244 -8.02205e-09
4.40357e-09 0.00785244 -7.95889e-09
4.78762e-09 0.00785244 -7.96779e-09
5.36127e-09 0.00785244 -8.01746e-09
3.56581e-09 0.00785244 -7.99998e-09
3.98745e-09 0.00785244 -7.89527e-09
4.42747e-09 0.00785244 -7.9219e-09
4.7514e-09 0.00785244 -7.97512e-09
5.29133e-09 0.00785244 -7.85849e-09
4.77739e-09 0.00940879 -9.96989e-09
4.80808e-09 0.00940879 -9.82498e-09
5.38609e-09 0.00940879 -1.00402e-08
5.83281e-09 0.00940879 -1.01725e-08
6.61392e-09 0.00940879 -1.00047e-08
4.36675e-09 0.00940879 -9.97035e-09
4.8021e-09 0.00940879 -9.91821e-09
5.40339e-09 0.00940879 -1.00532e-08
5.90444e-09 0.00940879 -9.9778e-09
6.52126e-09 0.00940879 -1.00611e-08
4.35807e-09 0.00940879 -1.00048e-08
4.9164e-09 0.00940879 -1.00135e-08
5.30843e-09 0.00940879 -1.00482e-08
5.89782e-09 0.00940879 -1.00449e-08
6.36006e-09 0.00940879 -9.9637e-09
4.44857e-09 0.00940879 -9.97555e-09
4.84694e-09 0.00940879 -1.00564e-08
5.37955e-09 0.00940879 -9.97048e-09
5.77973e-09 0.00940879 -1.01263e-08
6.37735e-09 0.00940879 -9.97971e-09
4.30165e-09 0.00940879 -9.92934e-09
4.97618e-09 0.00940879 -9.95982e-09
5.31984e-09 0.00940879 -9.99974e-09
5.66593e-09 0.00940879 -1.00363e-08
6.4075e-09 0.00940879 -1.01318e-08
4.96355e-09 0.0109533 -1.2005e-08
5.78763e-09 0.0109533 -1.206e-08
6.38804e-09 0.0109533 -1.19835e-08
7.05387e-09 0.0109533 -1.2179e-08
6.91115e-09 0.0109533 -1.21941e-08
5.2491e-09 0.0109533 -1.21318e-08
5.83257e-09 0.0109533 -1.20983e-08
6.33567e-09 0.0109533 -1.21594e-08
6.94625e-09 0.0109533 -1.21053e-08
7.33779e-09 0.0109533 -1.21825e-08
5.32635e-09 0.0109533 -1.20614e-08
5.79248e-09 0.0109533 -1.21424e-08
6.36839e-09 0.0109533 -1.20627e-08
6.88701e-09 0.0109533 -1.21355e-08
7.58629e-09 0.0109533 -1.22397e-08
5.25868e-09 0.0109533 -1.21842e-08
5.90721e-09 0.0109533 -1.21229e-08
6.29906e-09 0.0109533 -1.2268e-08
6.85923e-09 0.0109533 -1.20991e-08
7.37748e-09 0.0109533 -1.2168e-08
5.32425e-09 0.0109533 -1.20753e-08
5.92278e-09 0.0109533 -1.22179e-08
6.45868e-09 0.0109533 -1.21037e-08
6.69039e-09 0.0109533 -1.21817e-08
7.41627e-09 0.0109533 -1.20964e-08
6.67811e-09 0.0124826 -1.44611e-08
6.57983e-09 0.0124826 -1.4317e-08
7.39488e-09 0.0124826 -1.44057e-08
7.6137e-09 0.0124826 -1.42152e-08
8.58263e-09 0.0124826 -1.4487e-08
6.35106e-09 0.0124826 -1.43462e-08
6.86121e-09 0.0124826 -1.43304e-08
7.38269e-09 0.0124826 -1.42836e-08
7.70275e-09 0.0124826 -1.43085e-08
8.56366e-09 0.0124826 -1.44389e-08
6.26102e-09 0.0124826 -1.43354e-08
6.87231e-09 0.0124826 -1.43546e-08
7.40422e-09 0.0124826 -1.44062e-08
7.74856e-09 0.0124826 -1.43095e-08
8.66287e-09 0.0124826 -1.43474e-08
6.34998e-09 0.0124826 -1.43078e-08
6.85899e-09 0.0124826 -1.43593e-08
7.39893e-09 0.0124826 -1.42736e-08
7.77091e-09 0.0124826 -1.42806e-08
8.34334e-09 0.0124826 -1.42323e-08
6.43553e-09 0.0124826 -1.44692e-08
6.63815e-09 0.0124826 -1.44522e-08
7.42009e-09 0.0124826 -1.45857e-08
7.99035e-09 0.0124826 -1.43527e-08
7.96424e-09 0.0124826 -1.42411e-08
7.57133e-09 0.0139941 -1.65803e-08
7.96639e-09 0.013994 -1.68345e-08
8.14397e-09 0.013994 -1.67388e-08
8.56393e-09 0.013994 -1.66363e-08
9.17939e-09 0.013994 -1.67688e-08
7.56057e-09 0.013994 -1.67266e-08
7.80225e-09 0.0139941 -1.66972e-08
8.22581e-09 0.013994 -1.65536e-08
8.72469e-09 0.013994 -1.68016e-08
9.43273e-09 0.013994 -1.66476e-08
7.33957e-09 0.013994 -1.66366e-08
7.83847e-09 0.013994 -1.6638e-08
8.34909e-09 0.013994 -1.66725e-08
8.76644e-09 0.013994 -1.65431e-08
9.33493e-09 0.013994 -1.6551e-08
7.36543e-09 0.013994 -1.67735e-08
7.88226e-09 0.013994 -1.6666e-08
8.39438e-09 0.013994 -1.6651e-08
8.81945e-09 0.013994 -1.65892e-08
9.18102e-09 0.013994 -1.65958e-08
7.47259e-09 0.013994 -1.66512e-08
7.98429e-09 0.013994 -1.67495e-08
8.39907e-09 0.013994 -1.65811e-08
8.72809e-09 0.013994 -1.64561e-08
9.12699e-09 0.013994 -1.66535e-08
8.28858e-09 0.0154864 -1.8807e-08
8.76067e-09 0.0154864 -1.90227e-08
9.26921e-09 0.0154864 -1.92042e-08
9.77968e-09 0.0154864 -1.89333e-08
1.03158e-08 0.0154864 -1.87287e-08
8.25515e-09 0.0154864 -1.90068e-08
8.76464e-09 0.0154864 -1.89751e-08
9.34368e-09 0.0154864 -1.89647e-08
9.70368e-09 0.0154864 -1.8896e-08
1.04978e-08 0.0154864 -1.88774e-08
8.19538e-09 0.0154864 -1.90159e-08
8.86501e-09 0.0154864 -1.88471e-08
9.26894e-09 0.0154864 -1.87299e-08
9.67788e-09 0.0154864 -1.87128e-08
1.04517e-08 0.0154864 -1.89689e-08
8.41697e-09 0.0154864 -1.89897e-08
8.85093e-09 0.0154864 -1.90471e-08
9.43918e-09 0.0154864 -1.89308e-08
9.66839e-09 0.0154864 -1.90702e-08
1.01488e-08 0.0154864 -1.89015e-08
8.21954e-09 0.0154864 -1.89025e-08
8.86735e-09 0.0154864 -1.9044e-08
9.48827e-09 0.0154864 -1.90023e-08
9.579e-09 0.0154864 -1.88962e-08
9.93836e-09 0.0154864 -1.90882e-08
9.38775e-09 0.0169596 -2.10424e-08
9.78556e-09 0.0169596 -2.08764e-08
1.03275e-08 0.0169596 -2.11055e-08
1.10041e-08 0.0169596 -2.07198e-08
1.11647e-08 0.0169596 -2.07132e-08
9.28497e-09 0.0169596 -2.09915e-08
9.81355e-09 0.0169596 -2.09333e-08
1.02453e-08 0.0169596 -2.10661e-08
1.08108e-08 0.0169596 -2.09024e-08
1.12465e-08 0.0169596 -2.0916e-08
9.13391e-09 0.0169596 -2.09041e-08
9.94227e-09 0.0169596 -2.09518e-08
1.03504e-08 0.0169596 -2.10572e-08
1.05831e-08 0.0169596 -2.07724e-08
1.1415e-08 0.0169596 -2.08988e-08
9.15096e-09 0.0169596 -2.09964e-08
9.90841e-09 0.0169596 -2.10443e-08
1.02221e-08 0.0169596 -2.09813e-08
1.07001e-08 0.0169596 -2.09822e-08
1.09803e-08 0.0169596 -2.08854e-08
9.33029e-09 0.0169596 -2.1348e-08
9.8942e-09 0.0169596 -2.08795e-08
1.0158e-08 0.0169596 -2.12479e-08
1.09143e-08 0.0169596 -2.10907e-08
1.07087e-08 0.0169596 -2.09633e-08
1.06416e-08 0.0184145 -2.27365e-08
1.08778e-08 0.0184145 -2.25622e-08
1.12726e-08 0.0184145 -2.24006e-08
1.16605e-08 0.0184145 -2.29412e-08
1.14978e-08 0.0184145 -2.29854e-08
1.05314e-08 0.0184145 -2.2632e-08
1.09456e-08 0.0184145 -2.26927e-08
1.13019e-08 0.0184145 -2.27076e-08
1.14626e-08 0.0184145 -2.2734e-08
1.19993e-08 0.0184145 -2.27334e-08
1.08257e-08 0.0184145 -2.26766e-08
1.08317e-08 0.0184145 -2.28585e-08
1.13339e-08 0.0184145 -2.28513e-08
1.15283e-08 0.0184145 -2.26983e-08
1.1698e-08 0.0184145 -2.26331e-08
1.07181e-08 0.0184145 -2.28366e-08
1.08035e-08 0.0184145 -2.27437e-08
1.13704e-08 0.0184145 -2.27144e-08
1.15031e-08 0.0184145 -2.2756e-08
1.18758e-08 0.0184145 -2.27084e-08
1.05366e-08 0.0184145 -2.27609e-08
1.08897e-08 0.0184145 -2.27836e-08
1.13236e-08 0.0184145 -2.29171e-08
1.13049e-08 0.0184145 -2.26669e-08
1.1745e-08 0.0184145 -2.3072e-08
1.16518e-08 0.0198527 -2.41381e-08
1.21126e-08 0.0198527 -2.43806e-08
1.20658e-08 0.0198527 -2.43683e-08
1.21063e-08 0.0198527 -2.45211e-08
1.3235e-08 0.0198527 -2.43986e-08
1.18514e-08 0.0198527 -2.427e-08
1.18412e-08 0.0198527 -2.41342e-08
1.20376e-08 0.0198527 -2.43678e-08
1.24496e-08 0.0198527 -2.43234e-08
1.2408e-08 0.0198527 -2.42836e-08
1.16322e-08 0.0198527 -2.44126e-08
1.19968e-08 0.0198527 -2.43952e-08
1.23405e-08 0.0198527 -2.42072e-08
1.24517e-08 0.0198527 -2.42388e-08
1.20623e-08 0.0198527 -2.43734e-08
1.17382e-08 0.0198527 -2.44116e-08
1.20524e-08 0.0198527 -2.44422e-08
1.2292e-08 0.0198527 -2.42293e-08
1.22642e-08 0.0198527 -2.42825e-08
1.25492e-08 0.0198527 -2.44451e-08
1.16177e-08 0.0198527 -2.44045e-08
1.21108e-08 0.0198527 -2.43689e-08
1.2155e-08 0.0198527 -2.42295e-08
1.24267e-08 0.0198527 -2.40009e-08
1.27585e-08 0.0198527 -2.44001e-08
1.29197e-08 0.0212748 -2.57136e-08
1.29753e-08 0.0212748 -2.57684e-08
1.30389e-08 0.0212748 -2.60116e-08
1.28905e-08 0.0212748 -2.56682e-08
1.22621e-08 0.0212748 -2.53345e-08
1.30309e-08 0.0212748 -2.56401e-08
1.29906e-08 0.0212748 -2.56984e-08
1.30239e-08 0.0212748 -2.56944e-08
1.28553e-08 0.0212748 -2.55109e-08
1.27661e-08 0.0212748 -2.57209e-08
1.29466e-08 0.0212748 -2.55822e-08
1.30792e-08 0.0212748 -2.54778e-08
1.31566e-08 0.0212748 -2.54261e-08
1.30348e-08 0.0212748 -2.58033e-08
1.29141e-08 0.0212748 -2.56462e-08
1.27119e-08 0.0212748 -2.57157e-08
1.31808e-08 0.0212748 -2.52904e-08
1.32298e-08 0.0212748 -2.54921e-08
1.28899e-08 0.0212748 -2.56991e-08
1.28987e-08 0.0212748 -2.56479e-08
1.26287e-08 0.0212748 -2.50453e-08
1.3414e-08 0.0212748 -2.56969e-08
1.32591e-08 0.0212748 -2.53251e-08
1.30119e-08 0.0212748 -2.54056e-08
1.32768e-08 0.0212748 -2.53754e-08
1.31536e-08 0.0226808 -2.67838e-08
1.43216e-08 0.0226808 -2.68388e-08
1.39246e-08 0.0226808 -2.69621e-08
1.33498e-08 0.0226808 -2.68691e-08
1.36941e-08 0.0226808 -2.66641e-08
1.41719e-08 0.0226808 -2.6622e-08
1.39912e-08 0.0226808 -2.66112e-08
1.40321e-08 0.0226808 -2.67167e-08
1.36078e-08 0.0226808 -2.67682e-08
1.29614e-08 0.0226808 -2.67495e-08
1.41946e-08 0.0226808 -2.64723e-08
1.41628e-08 0.0226808 -2.65753e-08
1.38385e-08 0.0226808 -2.65329e-08
1.35948e-08 0.0226808 -2.65864e-08
1.36448e-08 0.0226808 -2.68401e-08
1.44426e-08 0.0226808 -2.62687e-08
1.40101e-08 0.0226808 -2.64588e-08
1.39778e-08 0.0226808 -2.65073e-08
1.38209e-08 0.0226808 -2.65802e-08
1.38637e-08 0.0226808 -2.66453e-08
1.46359e-08 0.0226809 -2.65281e-08
1.43264e-08 0.0226809 -2.63279e-08
1.39422e-08 0.0226809 -2.64244e-08
1.35049e-08 0.0226808 -2.67368e-08
1.49122e-08 0.0226808 -2.6391e-08
1.39997e-08 0.0240691 -2.69699e-08
1.50542e-08 0.0240691 -2.6881e-08
1.48565e-08 0.0240691 -2.71889e-08
1.42008e-08 0.0240691 -2.74138e-08
1.44215e-08 0.0240691 -2.73861e-08
1.50585e-08 0.0240691 -2.71165e-08
1.51271e-08 0.0240691 -2.69368e-08
1.47392e-08 0.0240691 -2.72849e-08
1.45084e-08 0.0240691 -2.75745e-08
1.40835e-08 0.0240691 -2.73358e-08
1.52611e-08 0.0240691 -2.69814e-08
1.50647e-08 0.0240691 -2.71361e-08
1.48812e-08 0.0240691 -2.70472e-08
1.44061e-08 0.0240691 -2.71157e-08
1.41983e-08 0.0240691 -2.70715e-08
1.56267e-08 0.0240691 -2.72324e-08
1.49565e-08 0.0240691 -2.70828e-08
1.48022e-08 0.0240691 -2.68489e-08
1.44651e-08 0.0240691 -2.68448e-08
1.47619e-08 0.0240691 -2.70476e-08
1.50396e-08 0.0240691 -2.69885e-08
1.52364e-08 0.0240691 -2.73254e-08
1.42725e-08 0.0240691 -2.76386e-08
1.47593e-08 0.0240691 -2.69536e-08
1.4643e-08 0.0240691 -2.68932e-08
1.65965e-08 0.0254372 -2.66857e-08
1.58518e-08 0.0254372 -2.68374e-08
1.58816e-08 0.0254372 -2.65692e-08
1.51844e-08 0.0254372 -2.74752e-08
1.48556e-08 0.0254372 -2.74558e-08
1.66451e-08 0.0254372 -2.68425e-08
1.57337e-08 0.0254372 -2.7043e-08
1.54602e-08 0.0254372 -2.69581e-08
1.49788e-08 0.0254372 -2.71459e-08
1.52813e-08 0.0254372 -2.73414e-08
1.652e-08 0.0254372 -2.7196e-08
1.59913e-08 0.0254372 -2.74413e-08
1.54825e-08 0.0254372 -2.73502e-08
1.52436e-08 0.0254372 -2.70428e-08
1.44941e-08 0.0254372 -2.69732e-08
1.63161e-08 0.0254372 -2.74198e-08
1.58169e-08 0.0254372 -2.7524e-08
1.57292e-08 0.0254372 -2.73661e-08
1.52695e-08 0.0254372 -2.72556e-08
1.4756e-08 0.0254372 -2.69094e-08
1.61206e-08 0.0254372 -2.75801e-08
1.55868e-08 0.0254372 -2.76504e-08
1.57063e-08 0.0254372 -2.74284e-08
1.56743e-08 0.0254372 -2.71386e-08
1.50785e-08 0.0254372 -2.70923e-08
1.70798e-08 0.0267822 -2.64879e-08
1.67749e-08 0.0267822 -2.63075e-08
1.61144e-08 0.0267822 -2.66238e-08
1.5541e-08 0.0267822 -2.68964e-08
1.67846e-08 0.0267822 -2.65475e-08
1.73637e-08 0.0267822 -2.66763e-08
1.66818e-08 0.0267822 -2.68337e-08
1.63635e-08 0.0267822 -2.65259e-08
1.56894e-08 0.0267822 -2.67393e-08
1.60463e-08 0.0267822 -2.69107e-08
1.72433e-08 0.0267822 -2.66776e-08
1.64708e-08 0.0267822 -2.69543e-08
1.63328e-08 0.0267822 -2.69107e-08
1.59931e-08 0.0267822 -2.66157e-08
1.54955e-08 0.0267822 -2.67712e-08
1.67253e-08 0.0267822 -2.69397e-08
1.64802e-08 0.0267822 -2.69267e-08
1.62175e-08 0.0267822 -2.6794e-08
1.61397e-08 0.0267822 -2.69084e-08
1.57098e-08 0.0267822 -2.66134e-08
1.66776e-08 0.0267822 -2.65965e-08
1.64788e-08 0.0267822 -2.6869e-08
1.62588e-08 0.0267822 -2.66438e-08
1.59748e-08 0.0267822 -2.68919e-08
1.6226e-08 0.0267822 -2.68508e-08
1.75028e-08 0.0281026 -2.58929e-08
1.74728e-08 0.0281026 -2.54982e-08
1.67748e-08 0.0281026 -2.62878e-08
1.69143e-08 0.0281026 -2.58396e-08
1.67982e-08 0.0281026 -2.60249e-08
1.74394e-08 0.0281026 -2.57458e-08
1.72465e-08 0.0281026 -2.59515e-08
1.69408e-08 0.0281026 -2.59041e-08
1.6501e-08 0.0281026 -2.59234e-08
1.69948e-08 0.0281026 -2.59956e-08
1.73224e-08 0.0281026 -2.56696e-08
1.72969e-08 0.0281026 -2.56854e-08
1.68886e-08 0.0281026 -2.58249e-08
1.66481e-08 0.0281026 -2.59723e-08
1.68412e-08 0.0281026 -2.61064e-08
1.71664e-08 0.0281026 -2.55918e-08
1.69305e-08 0.0281026 -2.57498e-08
1.69458e-08 0.0281026 -2.55893e-08
1.67825e-08 0.0281026 -2.56635e-08
1.64522e-08 0.0281026 -2.58124e-08
1.69565e-08 0.0281026 -2.58144e-08
1.70298e-08 0.0281026 -2.5622e-08
1.71799e-08 0.0281026 -2.55124e-08
1.6887e-08 0.0281026 -2.58592e-08
1.64465e-08 0.0281026 -2.56783e-08
1.79797e-08 0.0293981 -2.36532e-08
1.80305e-08 0.0293981 -2.42767e-08
1.77228e-08 0.0293981 -2.40095e-08
1.67683e-08 0.0293981 -2.44025e-08
1.83389e-08 0.0293981 -2.41573e-08
1.81616e-08 0.0293981 -2.41845e-08
1.79396e-08 0.0293981 -2.40328e-08
1.73036e-08 0.0293981 -2.43919e-08
1.71781e-08 0.0293981 -2.41615e-08
1.7459e-08 0.0293981 -2.44477e-08
1.82421e-08 0.0293981 -2.42177e-08
1.75586e-08 0.0293981 -2.4003e-08
1.75281e-08 0.0293981 -2.39912e-08
1.73915e-08 0.0293981 -2.45506e-08
1.75009e-08 0.0293981 -2.46534e-08
1.77464e-08 0.0293981 -2.40002e-08
1.76826e-08 0.0293981 -2.4091e-08
1.74831e-08 0.0293981 -2.40049e-08
1.72992e-08 0.0293981 -2.39954e-08
1.6998e-08 0.0293981 -2.43123e-08
1.76702e-08 0.0293981 -2.41877e-08
1.77086e-08 0.0293981 -2.43468e-08
1.7655e-08 0.0293981 -2.41982e-08
1.70605e-08 0.0293981 -2.41927e-08
1.68055e-08 0.0293981 -2.39077e-08
1.89544e-08 0.0306702 -2.21292e-08
1.82716e-08 0.0306702 -2.21257e-08
1.82749e-08 0.0306702 -2.25504e-08
1.7541e-08 0.0306702 -2.19663e-08
1.81015e-08 0.0306702 -2.20316e-08
1.84125e-08 0.0306702 -2.21686e-08
1.83818e-08 0.0306702 -2.23083e-08
1.81601e-08 0.0306702 -2.24221e-08
1.76297e-08 0.0306702 -2.23878e-08
1.81224e-08 0.0306702 -2.20709e-08
1.84546e-08 0.0306702 -2.23531e-08
1.82557e-08 0.0306702 -2.20535e-08
1.79722e-08 0.0306702 -2.21028e-08
1.78256e-08 0.0306702 -2.21214e-08
1.81804e-08 0.0306702 -2.25001e-08
1.85071e-08 0.0306702 -2.2087e-08
1.81722e-08 0.0306702 -2.16217e-08
1.81821e-08 0.0306702 -2.19456e-08
1.78432e-08 0.0306702 -2.25392e-08
1.75448e-08 0.0306702 -2.20587e-08
1.84222e-08 0.0306702 -2.15344e-08
1.81231e-08 0.0306702 -2.22127e-08
1.83636e-08 0.0306702 -2.21016e-08
1.79578e-08 0.0306702 -2.21518e-08
1.68558e-08 0.0306702 -2.18947e-08
1.98318e-08 0.0319204 -2.04372e-08
1.90213e-08 0.0319204 -2.05694e-08
1.84944e-08 0.0319204 -2.04314e-08
1.80233e-08 0.0319204 -1.99213e-08
1.80497e-08 0.0319204 -1.97566e-08
1.96843e-08 0.0319204 -1.99314e-08
1.89014e-08 0.0319204 -2.03179e-08
1.86143e-08 0.0319204 -2.01734e-08
1.81857e-08 0.0319204 -2.00051e-08
1.80462e-08 0.0319204 -1.98427e-08
1.88004e-08 0.0319204 -2.00817e-08
1.90675e-08 0.0319204 -1.99505e-08
1.85319e-08 0.0319204 -1.9896e-08
1.81294e-08 0.0319204 -1.98658e-08
1.86132e-08 0.0319204 -1.96595e-08
1.92068e-08 0.0319204 -1.97879e-08
1.90326e-08 0.0319204 -1.9955e-08
1.85123e-08 0.0319204 -1.97171e-08
1.80947e-08 0.0319204 -2.00151e-08
1.80299e-08 0.0319204 -1.98154e-08
2.01003e-08 0.0319204 -2.00193e-08
1.89866e-08 0.0319204 -1.94337e-08
1.84752e-08 0.0319204 -1.95845e-08
1.81268e-08 0.0319204 -1.96769e-08
1.78845e-08 0.0319204 -1.95796e-08
1.99879e-08 0.0331486 -1.80999e-08
1.95706e-08 0.0331486 -1.85134e-08
1.8737e-08 0.0331486 -1.77407e-08
1.86563e-08 0.0331486 -1.76325e-08
1.83637e-08 0.0331486 -1.82604e-08
2.00468e-08 0.0331486 -1.81798e-08
1.93477e-08 0.0331486 -1.77337e-08
1.90527e-08 0.0331486 -1.77074e-08
1.83203e-08 0.0331486 -1.75535e-08
1.80958e-08 0.0331486 -1.73759e-08
1.99414e-08 0.0331486 -1.76069e-08
1.9392e-08 0.0331486 -1.75643e-08