<?xml version="1.0"?>
<VTKFile type="UnstructuredGrid" version="0.1" byte_order="LittleEndian">
<UnstructuredGrid>
<Piece NumberOfPoints="1025" NumberOfCells="640">
<Points>
<DataArray type="Float32" NumberOfComponents="3" format="ascii">
0 0 0
0.025 0 0
0.05 0 0
0.075 0 0
0.1 0 0
0 0.025 0
0.025 0.025 0
0.05 0.025 0
0.075 0.025 0
0.1 0.025 0
0 0.05 0
0.025 0.05 0
0.05 0.05 0
0.075 0.05 0
0.1 0.05 0
0 0.075 0
0.025 0.075 0
0.05 0.075 0
0.075 0.075 0
0.1 0.075 0
0 0.1 0
0.025 0.1 0
0.05 0.1 0
0.075 0.1 0
0.1 0.1 0
0 0 0.025
0.025 0 0.025
0.05 0 0.025
0.075 0 0.025
0.1 0 0.025
0 0.025 0.025
0.025 0.025 0.025
0.05 0.025 0.025
0.075 0.025 0.025
0.1 0.025 0.025
0 0.05 0.025
0.025 0.05 0.025
0.05 0.05 0.025
0.075 0.05 0.025
0.1 0.05 0.025
0 0.075 0.025
0.025 0.075 0.025
0.05 0.075 0.025
0.075 0.075 0.025
0.1 0.075 0.025
0 0.1 0.025
0.025 0.1 0.025
0.05 0.1 0.025
0.075 0.1 0.025
0.1 0.1 0.025
0 0 0.05
0.025 0 0.05
0.05 0 0.05
0.075 0 0.05
0.1 0 0.05
0 0.025 0.05
0.025 0.025 0.05
0.05 0.025 0.05
0.075 0.025 0.05
0.1 0.025 0.05
0 0.05 0.05
0.025 0.05 0.05
0.05 0.05 0.05
0.075 0.05 0.05
0.1 0.05 0.05
0 0.075 0.05
0.025 0.075 0.05
0.05 0.075 0.05
0.075 0.075 0.05
0.1 0.075 0.05
0 0.1 0.05
0.025 0.1 0.05
0.05 0.1 0.05
0.075 0.1 0.05
0.1 0.1 0.05
0 0 0.075
0.025 0 0.075
0.05 0 0.075
0.075 0 0.075
0.1 0 0.075
0 0.025 0.075
0.025 0.025 0.075
0.05 0.025 0.075
0.075 0.025 0.075
0.1 0.025 0.075
0 0.05 0.075
0.025 0.05 0.075
0.05 0.05 0.075
0.075 0.05 0.075
0.1 0.05 0.075
0 0.075 0.075
0.025 0.075 0.075
0.05 0.075 0.075
0.075 0.075 0.075
0.1 0.075 0.075
0 0.1 0.075
0.025 0.1 0.075
0.05 0.1 0.075
0.075 0.1 0.075
0.1 0.1 0.075
0 0 0.1
0.025 0 0.1
0.05 0 0.1
0.075 0 0.1
0.1 0 0.1
0 0.025 0.1
0.025 0.025 0.1
0.05 0.025 0.1
0.075 0.025 0.1
0.1 0.025 0.1
0 0.05 0.1
0.025 0.05 0.1
0.05 0.05 0.1
0.075 0.05 0.1
0.1 0.05 0.1
0 0.075 0.1
0.025 0.075 0.1
0.05 0.075 0.1
0.075 0.075 0.1
0.1 0.075 0.1
0 0.1 0.1
0.025 0.1 0.1
0.05 0.1 0.1
0.075 0.1 0.1
0.1 0.1 0.1
0 0 0.125
0.025 0 0.125
0.05 0 0.125
0.075 0 0.125
0.1 0 0.125
0 0.025 0.125
0.025 0.025 0.125
0.05 0.025 0.125
0.075 0.025 0.125
0.1 0.025 0.125
0 0.05 0.125
0.025 0.05 0.125
0.05 0.05 0.125
0.075 0.05 0.125
0.1 0.05 0.125
0 0.075 0.125
0.025 0.075 0.125
0.05 0.075 0.125
0.075 0.075 0.125
0.1 0.075 0.125
0 0.1 0.125
0.025 0.1 0.125
0.05 0.1 0.125
0.075 0.1 0.125
0.1 0.1 0.125
0 0 0.15
0.025 0 0.15
0.05 0 0.15
0.075 0 0.15
0.1 0 0.15
0 0.025 0.15
0.025 0.025 0.15
0.05 0.025 0.15
0.075 0.025 0.15
0.1 0.025 0.15
0 0.05 0.15
0.025 0.05 0.15
0.05 0.05 0.15
0.075 0.05 0.15
0.1 0.05 0.15
0 0.075 0.15
0.025 0.075 0.15
0.05 0.075 0.15
0.075 0.075 0.15
0.1 0.075 0.15
0 0.1 0.15
0.025 0.1 0.15
0.05 0.1 0.15
0.075 0.1 0.15
0.1 0.1 0.15
0 0 0.175
0.025 0 0.175
0.05 0 0.175
0.075 0 0.175
0.1 0 0.175
0 0.025 0.175
0.025 0.025 0.175
0.05 0.025 0.175
0.075 0.025 0.175
0.1 0.025 0.175
0 0.05 0.175
0.025 0.05 0.175
0.05 0.05 0.175
0.075 0.05 0.175
0.1 0.05 0.175
0 0.075 0.175
0.025 0.075 0.175
0.05 0.075 0.175
0.075 0.075 0.175
0.1 0.075 0.175
0 0.1 0.175
0.025 0.1 0.175
0.05 0.1 0.175
0.075 0.1 0.175
0.1 0.1 0.175
0 0 0.2
0.025 0 0.2
0.05 0 0.2
0.075 0 0.2
0.1 0 0.2
0 0.025 0.2
0.025 0.025 0.2
0.05 0.025 0.2
0.075 0.025 0.2
0.1 0.025 0.2
0 0.05 0.2
0.025 0.05 0.2
0.05 0.05 0.2
0.075 0.05 0.2
0.1 0.05 0.2
0 0.075 0.2
0.025 0.075 0.2
0.05 0.075 0.2
0.075 0.075 0.2
0.1 0.075 0.2
0 0.1 0.2
0.025 0.1 0.2
0.05 0.1 0.2
0.075 0.1 0.2
0.1 0.1 0.2
0 0 0.225
0.025 0 0.225
0.05 0 0.225
0.075 0 0.225
0.1 0 0.225
0 0.025 0.225
0.025 0.025 0.225
0.05 0.025 0.225
0.075 0.025 0.225
0.1 0.025 0.225
0 0.05 0.225
0.025 0.05 0.225
0.05 0.05 0.225
0.075 0.05 0.225
0.1 0.05 0.225
0 0.075 0.225
0.025 0.075 0.225
0.05 0.075 0.225
0.075 0.075 0.225
0.1 0.075 0.225
0 0.1 0.225
0.025 0.1 0.225
0.05 0.1 0.225
0.075 0.1 0.225
0.1 0.1 0.225
0 0 0.25
0.025 0 0.25
0.05 0 0.25
0.075 0 0.25
0.1 0 0.25
0 0.025 0.25
0.025 0.025 0.25
0.05 0.025 0.25
0.075 0.025 0.25
0.1 0.025 0.25
0 0.05 0.25
0.025 0.05 0.25
0.05 0.05 0.25
0.075 0.05 0.25
0.1 0.05 0.25
0 0.075 0.25
0.025 0.075 0.25
0.05 0.075 0.25
0.075 0.075 0.25
0.1 0.075 0.25
0 0.1 0.25
0.025 0.1 0.25
0.05 0.1 0.25
0.075 0.1 0.25
0.1 0.1 0.25
0 0 0.275
0.025 0 0.275
0.05 0 0.275
0.075 0 0.275
0.1 0 0.275
0 0.025 0.275
0.025 0.025 0.275
0.05 0.025 0.275
0.075 0.025 0.275
0.1 0.025 0.275
0 0.05 0.275
0.025 0.05 0.275
0.05 0.05 0.275
0.075 0.05 0.275
0.1 0.05 0.275
0 0.075 0.275
0.025 0.075 0.275
0.05 0.075 0.275
0.075 0.075 0.275
0.1 0.075 0.275
0 0.1 0.275
0.025 0.1 0.275
0.05 0.1 0.275
0.075 0.1 0.275
0.1 0.1 0.275
0 0 0.3
0.025 0 0.3
0.05 0 0.3
0.075 0 0.3
0.1 0 0.3
0 0.025 0.3
0.025 0.025 0.3
0.05 0.025 0.3
0.075 0.025 0.3
0.1 0.025 0.3
0 0.05 0.3
0.025 0.05 0.3
0.05 0.05 0.3
0.075 0.05 0.3
0.1 0.05 0.3
0 0.075 0.3
0.025 0.075 0.3
0.05 0.075 0.3
0.075 0.075 0.3
0.1 0.075 0.3
0 0.1 0.3
0.025 0.1 0.3
0.05 0.1 0.3
0.075 0.1 0.3
0.1 0.1 0.3
0 0 0.325
0.025 0 0.325
0.05 0 0.325
0.075 0 0.325
0.1 0 0.325
0 0.025 0.325
0.025 0.025 0.325
0.05 0.025 0.325
0.075 0.025 0.325
0.1 0.025 0.325
0 0.05 0.325
0.025 0.05 0.325
0.05 0.05 0.325
0.075 0.05 0.325
0.1 0.05 0.325
0 0.075 0.325
0.025 0.075 0.325
0.05 0.075 0.325
0.075 0.075 0.325
0.1 0.075 0.325
0 0.1 0.325
0.025 0.1 0.325
0.05 0.1 0.325
0.075 0.1 0.325
0.1 0.1 0.325
0 0 0.35
0.025 0 0.35
0.05 0 0.35
0.075 0 0.35
0.1 0 0.35
0 0.025 0.35
0.025 0.025 0.35
0.05 0.025 0.35
0.075 0.025 0.35
0.1 0.025 0.35
0 0.05 0.35
0.025 0.05 0.35
0.05 0.05 0.35
0.075 0.05 0.35
0.1 0.05 0.35
0 0.075 0.35
0.025 0.075 0.35
0.05 0.075 0.35
0.075 0.075 0.35
0.1 0.075 0.35
0 0.1 0.35
0.025 0.1 0.35
0.05 0.1 0.35
0.075 0.1 0.35
0.1 0.1 0.35
0 0 0.375
0.025 0 0.375
0.05 0 0.375
0.075 0 0.375
0.1 0 0.375
0 0.025 0.375
0.025 0.025 0.375
0.05 0.025 0.375
0.075 0.025 0.375
0.1 0.025 0.375
0 0.05 0.375
0.025 0.05 0.375
0.05 0.05 0.375
0.075 0.05 0.375
0.1 0.05 0.375
0 0.075 0.375
0.025 0.075 0.375
0.05 0.075 0.375
0.075 0.075 0.375
0.1 0.075 0.375
0 0.1 0.375
0.025 0.1 0.375
0.05 0.1 0.375
0.075 0.1 0.375
0.1 0.1 0.375
0 0 0.4
0.025 0 0.4
0.05 0 0.4
0.075 0 0.4
0.1 0 0.4
0 0.025 0.4
0.025 0.025 0.4
0.05 0.025 0.4
0.075 0.025 0.4
0.1 0.025 0.4
0 0.05 0.4
0.025 0.05 0.4
0.05 0.05 0.4
0.075 0.05 0.4
0.1 0.05 0.4
0 0.075 0.4
0.025 0.075 0.4
0.05 0.075 0.4
0.075 0.075 0.4
0.1 0.075 0.4
0 0.1 0.4
0.025 0.1 0.4
0.05 0.1 0.4
0.075 0.1 0.4
0.1 0.1 0.4
0 0 0.425
0.025 0 0.425
0.05 0 0.425
0.075 0 0.425
0.1 0 0.425
0 0.025 0.425
0.025 0.025 0.425
0.05 0.025 0.425
0.075 0.025 0.425
0.1 0.025 0.425
0 0.05 0.425
0.025 0.05 0.425
0.05 0.05 0.425
0.075 0.05 0.425
0.1 0.05 0.425
0 0.075 0.425
0.025 0.075 0.425
0.05 0.075 0.425
0.075 0.075 0.425
0.1 0.075 0.425
0 0.1 0.425
0.025 0.1 0.425
0.05 0.1 0.425
0.075 0.1 0.425
0.1 0.1 0.425
0 0 0.45
0.025 0 0.45
0.05 0 0.45
0.075 0 0.45
0.1 0 0.45
0 0.025 0.45
0.025 0.025 0.45
0.05 0.025 0.45
0.075 0.025 0.45
0.1 0.025 0.45
0 0.05 0.45
0.025 0.05 0.45
0.05 0.05 0.45
0.075 0.05 0.45
0.1 0.05 0.45
0 0.075 0.45
0.025 0.075 0.45
0.05 0.075 0.45
0.075 0.075 0.45
0.1 0.075 0.45
0 0.1 0.45
0.025 0.1 0.45
0.05 0.1 0.45
0.075 0.1 0.45
0.1 0.1 0.45
0 0 0.475
0.025 0 0.475
0.05 0 0.475
0.075 0 0.475
0.1 0 0.475
0 0.025 0.475
0.025 0.025 0.475
0.05 0.025 0.475
0.075 0.025 0.475
0.1 0.025 0.475
0 0.05 0.475
0.025 0.05 0.475
0.05 0.05 0.475
0.075 0.05 0.475
0.1 0.05 0.475
0 0.075 0.475
0.025 0.075 0.475
0.05 0.075 0.475
0.075 0.075 0.475
0.1 0.075 0.475
0 0.1 0.475
0.025 0.1 0.475
0.05 0.1 0.475
0.075 0.1 0.475
0.1 0.1 0.475
0 0 0.5
0.025 0 0.5
0.05 0 0.5
0.075 0 0.5
0.1 0 0.5
0 0.025 0.5
0.025 0.025 0.5
0.05 0.025 0.5
0.075 0.025 0.5
0.1 0.025 0.5
0 0.05 0.5
0.025 0.05 0.5
0.05 0.05 0.5
0.075 0.05 0.5
0.1 0.05 0.5
0 0.075 0.5
0.025 0.075 0.5
0.05 0.075 0.5
0.075 0.075 0.5
0.1 0.075 0.5
0 0.1 0.5
0.025 0.1 0.5
0.05 0.1 0.5
0.075 0.1 0.5
0.1 0.1 0.5
0 0 0.525
0.025 0 0.525
0.05 0 0.525
0.075 0 0.525
0.1 0 0.525
0 0.025 0.525
0.025 0.025 0.525
0.05 0.025 0.525
0.075 0.025 0.525
0.1 0.025 0.525
0 0.05 0.525
0.025 0.05 0.525
0.05 0.05 0.525
0.075 0.05 0.525
0.1 0.05 0.525
0 0.075 0.525
0.025 0.075 0.525
0.05 0.075 0.525
0.075 0.075 0.525
0.1 0.075 0.525
0 0.1 0.525
0.025 0.1 0.525
0.05 0.1 0.525
0.075 0.1 0.525
0.1 0.1 0.525
0 0 0.55
0.025 0 0.55
0.05 0 0.55
0.075 0 0.55
0.1 0 0.55
0 0.025 0.55
0.025 0.025 0.55
0.05 0.025 0.55
0.075 0.025 0.55
0.1 0.025 0.55
0 0.05 0.55
0.025 0.05 0.55
0.05 0.05 0.55
0.075 0.05 0.55
0.1 0.05 0.55
0 0.075 0.55
0.025 0.075 0.55
0.05 0.075 0.55
0.075 0.075 0.55
0.1 0.075 0.55
0 0.1 0.55
0.025 0.1 0.55
0.05 0.1 0.55
0.075 0.1 0.55
0.1 0.1 0.55
0 0 0.575
0.025 0 0.575
0.05 0 0.575
0.075 0 0.575
0.1 0 0.575
0 0.025 0.575
0.025 0.025 0.575
0.05 0.025 0.575
0.075 0.025 0.575
0.1 0.025 0.575
0 0.05 0.575
0.025 0.05 0.575
0.05 0.05 0.575
0.075 0.05 0.575
0.1 0.05 0.575
0 0.075 0.575
0.025 0.075 0.575
0.05 0.075 0.575
0.075 0.075 0.575
0.1 0.075 0.575
0 0.1 0.575
0.025 0.1 0.575
0.05 0.1 0.575
0.075 0.1 0.575
0.1 0.1 0.575
0 0 0.6
0.025 0 0.6
0.05 0 0.6
0.075 0 0.6
0.1 0 0.6
0 0.025 0.6
0.025 0.025 0.6
0.05 0.025 0.6
0.075 0.025 0.6
0.1 0.025 0.6
0 0.05 0.6
0.025 0.05 0.6
0.05 0.05 0.6
0.075 0.05 0.6
0.1 0.05 0.6
0 0.075 0.6
0.025 0.075 0.6
0.05 0.075 0.6
0.075 0.075 0.6
0.1 0.075 0.6
0 0.1 0.6
0.025 0.1 0.6
0.05 0.1 0.6
0.075 0.1 0.6
0.1 0.1 0.6
0 0 0.625
0.025 0 0.625
0.05 0 0.625
0.075 0 0.625
0.1 0 0.625
0 0.025 0.625
0.025 0.025 0.625
0.05 0.025 0.625
0.075 0.025 0.625
0.1 0.025 0.625
0 0.05 0.625
0.025 0.05 0.625
0.05 0.05 0.625
0.075 0.05 0.625
0.1 0.05 0.625
0 0.075 0.625
0.025 0.075 0.625
0.05 0.075 0.625
0.075 0.075 0.625
0.1 0.075 0.625
0 0.1 0.625
0.025 0.1 0.625
0.05 0.1 0.625
0.075 0.1 0.625
0.1 0.1 0.625
0 0 0.65
0.025 0 0.65
0.05 0 0.65
0.075 0 0.65
0.1 0 0.65
0 0.025 0.65
0.025 0.025 0.65
0.05 0.025 0.65
0.075 0.025 0.65
0.1 0.025 0.65
0 0.05 0.65
0.025 0.05 0.65
0.05 0.05 0.65
0.075 0.05 0.65
0.1 0.05 0.65
0 0.075 0.65
0.025 0.075 0.65
0.05 0.075 0.65
0.075 0.075 0.65
0.1 0.075 0.65
0 0.1 0.65
0.025 0.1 0.65
0.05 0.1 0.65
0.075 0.1 0.65
0.1 0.1 0.65
0 0 0.675
0.025 0 0.675
0.05 0 0.675
0.075 0 0.675
0.1 0 0.675
[...]
<PointData Vectors="Displacement">
<DataArray type="Float32" Name="Displacement" NumberOfComponents="3" format="ascii">
0 0 0
0 0 0
0 0 0
0 0 0
0 0 0
0 0 0
0 0 0
0 0 0
0 0 0
0 0 0
0 0 0
0 0 0
0 0 0
0 0 0
0 0 0
0 0 0
0 0 0
0 0 0
0 0 0
0 0 0
0 0 0
0 0 0
0 0 0
0 0 0
0 0 0
3.66185e-10 0.00096328 9.58489e-10
2.00705e-10 0.00096328 9.73609e-10
9.0926e-11 0.00096328 9.9779e-10
-1.00383e-11 0.00096328 1.00411e-09
-2.18564e-10 0.00096328 9.90499e-10
3.61827e-10 0.00096328 9.64242e-10
1.95859e-10 0.00096328 9.66868e-10
9.34434e-11 0.00096328 9.66226e-10
-1.64866e-11 0.00096328 9.80641e-10
-1.77314e-10 0.00096328 9.86399e-10
3.61289e-10 0.00096328 9.70148e-10
1.87506e-10 0.00096328 9.67603e-10
8.77977e-11 0.00096328 9.61872e-10
-9.7321e-12 0.000963279 9.7044e-10
-1.8677e-10 0.000963279 9.79443e-10
3.77088e-10 0.00096328 9.77461e-10
1.87047e-10 0.000963279 9.8226e-10
9.29892e-11 0.000963279 9.91221e-10
-2.00011e-11 0.000963279 9.90841e-10
-2.01546e-10 0.000963279 9.94449e-10
3.92019e-10 0.000963279 9.91769e-10
1.94581e-10 0.000963279 1.00128e-09
8.3409e-11 0.000963279 9.93449e-10
-2.72952e-11 0.000963279 1.01508e-09
-2.08289e-10 0.000963279 1.00646e-09
4.97208e-10 0.00192849 1.98215e-09
3.28757e-10 0.00192849 1.98494e-09
2.02983e-10 0.00192849 1.99444e-09
-4.48686e-12 0.00192849 2.00947e-09
-2.09378e-10 0.00192849 1.96534e-09
4.67988e-10 0.00192849 1.98127e-09
3.32743e-10 0.00192849 1.98727e-09
1.76381e-10 0.00192849 1.99142e-09
1.80869e-11 0.00192849 2.00371e-09
-1.83538e-10 0.00192849 1.99076e-09
4.81769e-10 0.00192849 1.98074e-09
3.17709e-10 0.00192849 1.99007e-09
1.69077e-10 0.00192849 1.98321e-09
6.47749e-12 0.00192849 2.00085e-09
-1.26055e-10 0.00192849 2.02965e-09
5.029e-10 0.00192849 2.0137e-09
3.15106e-10 0.00192849 1.99326e-09
1.78923e-10 0.00192849 2.01488e-09
-2.01201e-11 0.00192849 2.02552e-09
-2.13634e-10 0.00192849 1.98939e-09
5.48805e-10 0.00192849 1.99876e-09
3.48207e-10 0.00192849 2.01833e-09
1.51416e-10 0.00192849 2.00806e-09
-7.75115e-12 0.00192849 2.03823e-09
-2.33933e-10 0.00192849 2.01886e-09
5.05923e-10 0.00289748 3.07278e-09
4.12454e-10 0.00289748 3.01411e-09
2.37363e-10 0.00289748 3.05031e-09
1.67869e-11 0.00289748 3.00564e-09
-8.826e-11 0.00289748 3.06083e-09
5.47786e-10 0.00289748 3.02577e-09
3.93016e-10 0.00289748 3.0179e-09
2.44243e-10 0.00289748 3.01477e-09
5.50333e-11 0.00289748 3.02999e-09
-9.48036e-11 0.00289748 3.01508e-09
5.84712e-10 0.00289748 3.02288e-09
3.83226e-10 0.00289748 2.99712e-09
2.21997e-10 0.00289748 3.02985e-09
5.5889e-11 0.00289748 3.03166e-09
-9.8699e-11 0.00289748 3.03301e-09
5.98928e-10 0.00289748 3.00104e-09
3.91911e-10 0.00289748 3.02509e-09
2.05389e-10 0.00289748 3.01269e-09
1.28734e-11 0.00289748 3.0267e-09
-1.43446e-10 0.00289748 3.01857e-09
5.46813e-10 0.00289748 3.01961e-09
3.97627e-10 0.00289748 3.01128e-09
2.26513e-10 0.00289748 3.04838e-09
-2.35899e-11 0.00289748 3.02763e-09
-2.21732e-10 0.00289748 2.98562e-09
5.63678e-10 0.00387199 4.0074e-09
4.21561e-10 0.00387199 4.06744e-09
2.58458e-10 0.00387199 4.0147e-09
5.86844e-11 0.00387199 3.96976e-09
-7.91898e-11 0.00387199 4.03583e-09
5.42797e-10 0.00387199 4.04504e-09
3.9824e-10 0.00387199 4.02929e-09
2.66661e-10 0.00387199 4.02186e-09
6.68716e-11 0.00387199 4.01033e-09
-8.82592e-11 0.00387199 4.01296e-09
5.36407e-10 0.00387199 3.98198e-09
3.84909e-10 0.00387199 3.9948e-09
2.50766e-10 0.00387199 4.0095e-09
8.90291e-11 0.00387199 4.02515e-09
-7.71512e-11 0.00387199 3.97977e-09
5.98615e-10 0.00387199 3.98346e-09
3.98201e-10 0.00387199 3.99167e-09
2.4033e-10 0.00387199 3.99475e-09
3.39991e-11 0.00387199 3.98195e-09
-1.31392e-10 0.00387199 3.97806e-09
5.89705e-10 0.00387199 4.0163e-09
4.15699e-10 0.00387199 4.02488e-09
2.33635e-10 0.00387199 3.95354e-09
7.5086e-12 0.00387199 3.96678e-09
-2.1922e-10 0.00387199 3.93857e-09
5.18194e-10 0.00485359 4.94981e-09
4.16358e-10 0.00485359 4.94747e-09
2.19462e-10 0.00485359 4.86081e-09
7.34781e-11 0.00485359 4.9193e-09
-1.31083e-10 0.00485359 4.91734e-09
5.37426e-10 0.00485359 4.91835e-09
3.62442e-10 0.00485359 4.96019e-09
2.42182e-10 0.00485359 4.92985e-09
5.70517e-11 0.00485359 4.93257e-09
-1.06966e-10 0.00485359 4.93042e-09
5.12949e-10 0.00485359 4.9151e-09
3.61171e-10 0.00485359 4.94508e-09
2.23138e-10 0.00485359 4.97158e-09
2.23503e-11 0.00485359 4.96373e-09
-7.65408e-11 0.00485359 4.93319e-09
4.95341e-10 0.00485359 4.88901e-09
3.89347e-10 0.00485359 4.93425e-09
2.30398e-10 0.00485359 4.94154e-09
-3.93685e-13 0.00485358 4.94247e-09
-1.3434e-10 0.00485359 4.92923e-09
5.40353e-10 0.00485359 4.92562e-09
3.5471e-10 0.00485359 4.91733e-09
1.70935e-10 0.00485359 4.98512e-09
-2.99857e-11 0.00485359 4.90356e-09
-2.05776e-10 0.00485358 4.98578e-09
4.73714e-10 0.00584367 5.78464e-09
1.94891e-10 0.00584367 5.79194e-09
1.99652e-10 0.00584367 5.72046e-09
-1.33379e-11 0.00584367 5.72615e-09
2.68429e-11 0.00584367 5.78489e-09
4.15891e-10 0.00584367 5.76787e-09
2.5797e-10 0.00584367 5.78597e-09
1.65788e-10 0.00584367 5.76601e-09
-9.04106e-12 0.00584367 5.74513e-09
-1.19364e-10 0.00584367 5.78149e-09
4.28951e-10 0.00584367 5.79906e-09
3.05021e-10 0.00584367 5.77243e-09
1.42011e-10 0.00584367 5.7871e-09
-2.13065e-11 0.00584367 5.75899e-09
-2.84129e-10 0.00584367 5.77759e-09
4.49096e-10 0.00584367 5.73164e-09
2.98003e-10 0.00584367 5.79574e-09
1.27479e-10 0.00584367 5.80841e-09
-8.67768e-11 0.00584367 5.7751e-09
-2.14919e-10 0.00584367 5.80346e-09
3.65662e-10 0.00584367 5.75522e-09
2.65692e-10 0.00584367 5.70767e-09
1.45894e-10 0.00584367 5.82514e-09
-1.24409e-10 0.00584367 5.85796e-09
-1.26656e-10 0.00584367 5.78291e-09
7.2964e-11 0.00684353 6.52002e-09
1.45584e-10 0.00684353 6.53662e-09
1.75706e-11 0.00684353 6.60507e-09
-3.57978e-11 0.00684353 6.43161e-09
-3.09976e-10 0.00684353 6.50541e-09
2.95929e-10 0.00684353 6.54635e-09
9.20644e-11 0.00684353 6.55409e-09
1.39317e-11 0.00684353 6.5401e-09
-5.69442e-11 0.00684353 6.48894e-09
-2.90456e-10 0.00684353 6.49398e-09
2.55062e-10 0.00684353 6.56064e-09
1.55593e-10 0.00684353 6.54903e-09
-1.2932e-11 0.00684353 6.57968e-09
-1.47263e-10 0.00684353 6.47537e-09
-1.95401e-10 0.00684353 6.49246e-09
2.802e-10 0.00684353 6.4867e-09
1.56157e-10 0.00684353 6.49933e-09
-8.77565e-12 0.00684353 6.45908e-09
-1.81542e-10 0.00684353 6.53433e-09
-3.2199e-10 0.00684353 6.52928e-09
1.81175e-10 0.00684353 6.46594e-09
2.25665e-10 0.00684353 6.51401e-09
4.31166e-11 0.00684353 6.51077e-09
-1.95748e-10 0.00684353 6.5402e-09
-2.66784e-10 0.00684353 6.5387e-09
1.04523e-10 0.00785446 7.1101e-09
-1.54107e-10 0.00785446 7.28841e-09
-1.48718e-10 0.00785446 7.19829e-09
-3.66195e-10 0.00785446 7.24068e-09
-2.94262e-10 0.00785446 7.1326e-09
3.56248e-11 0.00785446 7.2332e-09
-4.26488e-11 0.00785446 7.19658e-09
-1.56115e-10 0.00785446 7.14886e-09
-3.59109e-10 0.00785446 7.20616e-09
-1.79629e-10 0.00785446 7.14298e-09
3.03699e-11 0.00785446 7.10861e-09
-5.71591e-11 0.00785446 7.16136e-09
-1.68733e-10 0.00785446 7.19223e-09
-3.61373e-10 0.00785446 7.15507e-09
-3.08851e-10 0.00785446 7.18329e-09
5.36324e-11 0.00785446 7.14542e-09
-6.2474e-11 0.00785446 7.15993e-09
-2.09715e-10 0.00785446 7.12359e-09
-3.6268e-10 0.00785446 7.15076e-09
-4.1498e-10 0.00785446 7.19628e-09
1.82737e-10 0.00785446 7.15436e-09
-1.24597e-10 0.00785446 7.12335e-09
-1.83372e-10 0.00785446 7.13212e-09
-3.86824e-10 0.00785446 7.20815e-09
-5.05361e-10 0.00785446 7.20364e-09
-2.04195e-10 0.00887781 7.67551e-09
-2.78801e-10 0.00887781 7.62135e-09
-4.34525e-10 0.00887781 7.72815e-09
-4.65472e-10 0.00887781 7.64274e-09
-4.19421e-10 0.00887781 7.61268e-09
-1.1342e-10 0.00887781 7.55837e-09
-3.46432e-10 0.00887781 7.66888e-09
-4.36766e-10 0.00887781 7.70947e-09
-4.72499e-10 0.00887781 7.59002e-09
-5.71219e-10 0.00887781 7.64209e-09
-2.37271e-10 0.00887781 7.59496e-09
-3.48816e-10 0.00887781 7.62085e-09
-3.67359e-10 0.00887781 7.59692e-09
-5.486e-10 0.00887781 7.69447e-09
-5.40422e-10 0.00887781 7.72663e-09
-2.01916e-10 0.00887781 7.51544e-09
-3.27409e-10 0.00887781 7.6148e-09
-4.20886e-10 0.00887781 7.63758e-09
-5.47506e-10 0.00887781 7.66187e-09
-6.80609e-10 0.00887781 7.68627e-09
-1.89361e-10 0.00887781 7.5729e-09
-3.75797e-10 0.00887781 7.57913e-09
-4.66505e-10 0.00887781 7.59064e-09
-5.28307e-10 0.00887781 7.56941e-09
-7.22842e-10 0.00887781 7.7089e-09
-7.17755e-10 0.00991514 7.97349e-09
-6.28654e-10 0.00991513 8.07665e-09
-6.18396e-10 0.00991514 7.97404e-09
-6.67562e-10 0.00991513 7.92626e-09
-7.63503e-10 0.00991513 8.0993e-09
-7.32696e-10 0.00991514 8.0134e-09
-6.47683e-10 0.00991513 7.97799e-09
-6.21586e-10 0.00991513 8.04945e-09
-7.41868e-10 0.00991513 7.9702e-09
-5.98142e-10 0.00991513 7.94776e-09
-7.89774e-10 0.00991513 7.91771e-09
-6.54419e-10 0.00991513 8.05615e-09
-6.86866e-10 0.00991513 7.98724e-09
-7.32891e-10 0.00991513 8.04391e-09
-7.63757e-10 0.00991513 7.96176e-09
-6.94616e-10 0.00991513 7.97029e-09
-6.84269e-10 0.00991513 7.89976e-09
-6.60789e-10 0.00991513 8.01035e-09
-7.69039e-10 0.00991513 7.94114e-09
-8.44116e-10 0.00991513 7.97825e-09
-7.09747e-10 0.00991513 8.06374e-09
-6.26192e-10 0.00991513 7.95425e-09
-6.60181e-10 0.00991513 7.90061e-09
-8.32748e-10 0.00991513 8.01325e-09
-8.73758e-10 0.00991513 8.0044e-09
-9.23878e-10 0.0109682 8.28473e-09
-1.01332e-09 0.0109682 8.3016e-09
-9.22354e-10 0.0109682 8.51917e-09
-8.52833e-10 0.0109682 8.36067e-09
-1.20234e-09 0.0109682 8.48208e-09
-1.17717e-09 0.0109682 8.325e-09
-1.00276e-09 0.0109682 8.33743e-09
-1.00432e-09 0.0109682 8.24662e-09
-9.51232e-10 0.0109682 8.27197e-09
-1.01314e-09 0.0109682 8.30713e-09
-1.09144e-09 0.0109682 8.31171e-09
-9.8197e-10 0.0109682 8.26405e-09
-9.62532e-10 0.0109682 8.34277e-09
-1.05229e-09 0.0109682 8.23884e-09
-8.90335e-10 0.0109682 8.25715e-09
-1.15231e-09 0.0109682 8.34191e-09
-1.00388e-09 0.0109682 8.30983e-09
-1.04875e-09 0.0109682 8.26534e-09
-1.08826e-09 0.0109682 8.27305e-09
-1.06362e-09 0.0109682 8.27423e-09
-1.09543e-09 0.0109682 8.32276e-09
-1.11188e-09 0.0109682 8.23764e-09
-1.00149e-09 0.0109682 8.20573e-09
-9.18607e-10 0.0109682 8.29104e-09
-1.2683e-09 0.0109682 8.27475e-09
-1.3369e-09 0.0120388 8.44338e-09
-1.32027e-09 0.0120388 8.41801e-09
-1.32938e-09 0.0120388 8.73406e-09
-1.30684e-09 0.0120388 8.43579e-09
-1.34404e-09 0.0120388 8.50848e-09
-1.27835e-09 0.0120388 8.53569e-09
-1.2965e-09 0.0120388 8.50607e-09
-1.36653e-09 0.0120388 8.58666e-09
-1.30845e-09 0.0120388 8.50756e-09
-1.2098e-09 0.0120388 8.42704e-09
-1.23277e-09 0.0120388 8.51484e-09
-1.32217e-09 0.0120388 8.44074e-09
-1.24648e-09 0.0120388 8.39668e-09
-1.41366e-09 0.0120388 8.4789e-09
-1.19109e-09 0.0120388 8.4133e-09
-1.38889e-09 0.0120388 8.45664e-09
-1.35116e-09 0.0120388 8.42772e-09
-1.23016e-09 0.0120388 8.46567e-09
-1.29002e-09 0.0120388 8.37919e-09
-1.45149e-09 0.0120388 8.35955e-09
-1.16531e-09 0.0120388 8.49923e-09
-1.34606e-09 0.0120388 8.50936e-09
-1.15898e-09 0.0120388 8.36194e-09
-1.37941e-09 0.0120388 8.50087e-09
-1.62135e-09 0.0120388 8.31495e-09
-1.77581e-09 0.0131286 8.46528e-09
-1.45795e-09 0.0131286 8.48341e-09
-1.58697e-09 0.0131286 8.59951e-09
-1.71784e-09 0.0131286 8.55506e-09
-1.37268e-09 0.0131286 8.30412e-09
-1.504e-09 0.0131286 8.51798e-09
-1.63809e-09 0.0131286 8.57579e-09
-1.60862e-09 0.0131286 8.54778e-09
-1.52996e-09 0.0131286 8.5112e-09
-1.5833e-09 0.0131286 8.4975e-09
-1.75445e-09 0.0131286 8.51752e-09
-1.60609e-09 0.0131286 8.53703e-09
-1.48542e-09 0.0131286 8.48524e-09
-1.45599e-09 0.0131286 8.53451e-09
-1.82667e-09 0.0131286 8.46999e-09
-1.7813e-09 0.0131286 8.62546e-09
-1.55878e-09 0.0131286 8.55473e-09
-1.46943e-09 0.0131286 8.67678e-09
-1.62672e-09 0.0131286 8.49765e-09
-1.47577e-09 0.0131286 8.42413e-09
-1.65177e-09 0.0131286 8.583e-09
-1.45914e-09 0.0131286 8.66428e-09
-1.61641e-09 0.0131286 8.70926e-09
-1.53011e-09 0.0131286 8.65619e-09
-1.53101e-09 0.0131286 8.40818e-09
-1.6214e-09 0.0142392 8.47018e-09
-1.71279e-09 0.0142392 8.62463e-09
-1.92231e-09 0.0142392 8.64887e-09
-1.9345e-09 0.0142392 8.427e-09
-2.10357e-09 0.0142392 8.43119e-09
-1.67919e-09 0.0142392 8.57434e-09
-1.78282e-09 0.0142392 8.4585e-09
-1.81339e-09 0.0142392 8.49296e-09
-1.94006e-09 0.0142392 8.41745e-09
-2.15555e-09 0.0142392 8.46494e-09
-1.87956e-09 0.0142392 8.53721e-09
-1.88273e-09 0.0142392 8.75625e-09
-1.73618e-09 0.0142392 8.62928e-09
-1.8671e-09 0.0142392 8.38154e-09
-1.84604e-09 0.0142392 8.4486e-09
-2.13331e-09 0.0142392 8.77373e-09
-1.79377e-09 0.0142392 8.72352e-09
-1.61373e-09 0.0142392 8.70389e-09
-1.88787e-09 0.0142392 8.51611e-09
-1.83547e-09 0.0142392 8.63207e-09
-2.00804e-09 0.0142392 8.88492e-09
-1.70469e-09 0.0142392 8.77039e-09
-1.74638e-09 0.0142392 8.56602e-09
-1.80843e-09 0.0142392 8.69842e-09
-2.107e-09 0.0142392 8.64297e-09
-2.2903e-09 0.0153714 8.40454e-09
-2.02939e-09 0.0153714 8.42709e-09
-2.01231e-09 0.0153714 8.18395e-09
-2.2222e-09 0.0153714 8.14975e-09
-2.21135e-09 0.0153714 8.33284e-09
-2.10437e-09 0.0153714 8.42189e-09
-2.07925e-09 0.0153714 8.40043e-09
-2.09153e-09 0.0153714 8.39358e-09
-2.12952e-09 0.0153714 8.22283e-09
-2.17713e-09 0.0153714 8.30242e-09
-2.11114e-09 0.0153714 8.58838e-09
-2.07959e-09 0.0153714 8.43858e-09
-2.05342e-09 0.0153714 8.41491e-09
-2.13312e-09 0.0153714 8.33923e-09
-2.13701e-09 0.0153714 8.22596e-09
-1.9228e-09 0.0153714 8.67292e-09
-2.20929e-09 0.0153714 8.59619e-09
-2.05813e-09 0.0153714 8.57017e-09
-2.10645e-09 0.0153714 8.37549e-09
-2.13289e-09 0.0153714 8.40847e-09
-1.83428e-09 0.0153714 8.55026e-09
-2.19334e-09 0.0153714 8.58214e-09
-2.01337e-09 0.0153714 8.64476e-09
-2.26632e-09 0.0153714 8.67685e-09
-2.33231e-09 0.0153714 8.50136e-09
-2.83424e-09 0.0165255 8.19363e-09
-2.4857e-09 0.0165255 8.31142e-09
-2.4049e-09 0.0165255 8.36978e-09
-2.32774e-09 0.0165255 8.40608e-09
-2.12315e-09 0.0165255 8.18901e-09
-2.66171e-09 0.0165255 8.30106e-09
-2.35229e-09 0.0165255 8.30158e-09
-2.36243e-09 0.0165254 8.264e-09
-2.39589e-09 0.0165254 8.22934e-09
-2.47729e-09 0.0165255 8.23799e-09
-2.27878e-09 0.0165255 8.40812e-09
-2.40943e-09 0.0165255 8.3326e-09
-2.25954e-09 0.0165255 8.25599e-09
-2.49827e-09 0.0165254 8.15056e-09
-2.45311e-09 0.0165255 8.30296e-09
-2.32916e-09 0.0165255 8.15491e-09
-2.42854e-09 0.0165255 8.33992e-09
-2.35031e-09 0.0165255 8.37692e-09
-2.48544e-09 0.0165255 8.29345e-09
-2.31072e-09 0.0165254 8.25376e-09
-2.51555e-09 0.0165255 8.38278e-09
-2.28356e-09 0.0165255 8.31981e-09
-2.55625e-09 0.0165255 8.20966e-09
-2.31503e-09 0.0165254 8.43061e-09
-2.30727e-09 0.0165255 8.11754e-09
-2.33175e-09 0.0177013 8.1259e-09
-2.75874e-09 0.0177013 8.29542e-09
-2.17307e-09 0.0177013 8.55281e-09
-2.78808e-09 0.0177013 8.34432e-09
-2.76064e-09 0.0177013 8.2499e-09
-2.40397e-09 0.0177013 8.18781e-09
-2.63951e-09 0.0177013 8.16128e-09
-2.60107e-09 0.0177013 8.37125e-09
-2.68792e-09 0.0177013 8.30956e-09
-2.44197e-09 0.0177013 8.34762e-09
-2.48875e-09 0.0177013 7.95141e-09
-2.50476e-09 0.0177013 8.0448e-09
-2.58721e-09 0.0177013 8.1182e-09
-2.57275e-09 0.0177013 8.17799e-09
-2.75201e-09 0.0177013 8.13587e-09
-2.43884e-09 0.0177013 8.00171e-09
-2.52065e-09 0.0177013 7.82175e-09
-2.53508e-09 0.0177013 8.11562e-09
-2.62022e-09 0.0177013 8.02536e-09
-2.82049e-09 0.0177013 8.1811e-09
-2.36405e-09 0.0177013 7.90094e-09
-2.67235e-09 0.0177013 7.9006e-09
-2.33492e-09 0.0177013 8.13058e-09
-2.69589e-09 0.0177013 8.0323e-09
-2.70895e-09 0.0177013 8.0609e-09
-2.85376e-09 0.0188989 7.92203e-09
-2.64218e-09 0.0188989 7.80835e-09
-2.64012e-09 0.0188989 8.006e-09
-2.78401e-09 0.0188989 8.04774e-09
-3.04879e-09 0.0188989 8.15826e-09
-2.75176e-09 0.0188989 7.72723e-09
-2.80531e-09 0.0188989 7.74809e-09
-2.67663e-09 0.0188989 7.98071e-09
-2.94116e-09 0.0188989 8.06059e-09
-2.7343e-09 0.0188989 7.88095e-09
-2.78187e-09 0.0188989 7.76073e-09
-2.81803e-09 0.0188989 7.6172e-09
-2.7349e-09 0.0188989 7.89547e-09
-2.69983e-09 0.0188989 7.82346e-09
-2.63913e-09 0.0188989 8.02581e-09
-2.79736e-09 0.0188989 7.64201e-09
-2.85449e-09 0.0188989 7.82278e-09
-2.70147e-09 0.0188989 7.70436e-09
-2.68133e-09 0.0188989 7.72512e-09
-2.62321e-09 0.0188989 7.764e-09
-2.92598e-09 0.0188989 7.91634e-09
-2.64006e-09 0.0188989 7.72628e-09
-2.8658e-09 0.0188989 7.87677e-09
-2.75025e-09 0.0188989 7.50793e-09
-3.05465e-09 0.0188989 7.72261e-09
-3.19795e-09 0.0201184 7.2587e-09
-2.87243e-09 0.0201184 7.60663e-09
-2.81183e-09 0.0201184 7.31607e-09
-2.91936e-09 0.0201184 7.43246e-09
-2.74283e-09 0.0201184 7.58874e-09
-3.06916e-09 0.0201184 7.55323e-09
-2.91945e-09 0.0201184 7.2716e-09
-2.61772e-09 0.0201184 7.46525e-09
-2.78804e-09 0.0201184 7.4784e-09
-2.85956e-09 0.0201184 7.36677e-09
-3.05824e-09 0.0201184 7.36801e-09
-2.92905e-09 0.0201184 7.51656e-09
-2.82661e-09 0.0201184 7.44495e-09
-2.72145e-09 0.0201184 7.23272e-09
-2.52548e-09 0.0201184 7.28449e-09
-3.11003e-09 0.0201184 7.52276e-09
-2.99637e-09 0.0201184 7.31138e-09
-2.82714e-09 0.0201184 7.6668e-09
-2.69899e-09 0.0201184 7.41772e-09
-2.42061e-09 0.0201184 7.25362e-09
-3.49194e-09 0.0201184 7.33954e-09
-2.95336e-09 0.0201184 7.42186e-09
-2.62121e-09 0.0201184 7.23404e-09
-2.80829e-09 0.0201184 7.01802e-09
-2.21361e-09 0.0201184 7.16684e-09
-3.49146e-09 0.0213604 7.25007e-09
-2.99956e-09 0.0213604 7.19783e-09
-2.63109e-09 0.0213604 7.10425e-09
-3.14027e-09 0.0213604 6.98857e-09
-2.08762e-09 0.0213604 7.01199e-09
-3.25363e-09 0.0213604 7.15659e-09
-3.03497e-09 0.0213604 7.15566e-09
-2.88521e-09 0.0213604 6.95307e-09
-2.79718e-09 0.0213604 6.99388e-09
-2.85038e-09 0.0213604 6.90169e-09
-3.26345e-09 0.0213604 7.0537e-09
-3.09864e-09 0.0213604 7.15426e-09
-2.82008e-09 0.0213604 7.21624e-09
-2.7248e-09 0.0213604 6.83663e-09
-2.29472e-09 0.0213604 6.79976e-09
-3.36264e-09 0.0213604 6.87136e-09
-3.1439e-09 0.0213604 6.96982e-09
-2.96863e-09 0.0213604 7.03741e-09
-2.6532e-09 0.0213604 7.08569e-09
-2.41014e-09 0.0213604 6.83684e-09
-3.29199e-09 0.0213604 7.0227e-09
-3.31674e-09 0.0213604 7.03446e-09
-2.81806e-09 0.0213604 7.01503e-09
-2.84374e-09 0.0213604 6.65561e-09
-1.90442e-09 0.0213604 7.0462e-09
-3.35641e-09 0.0226258 6.90083e-09
-2.91869e-09 0.0226258 6.4118e-09
-2.61683e-09 0.0226258 6.74256e-09
-2.83725e-09 0.0226258 6.64031e-09
-2.79633e-09 0.0226258 6.77669e-09
-3.24838e-09 0.0226258 6.71063e-09
-3.16946e-09 0.0226258 6.91013e-09
-2.77071e-09 0.0226258 6.37464e-09
-2.79221e-09 0.0226258 6.53221e-09
-2.58365e-09 0.0226258 6.71372e-09
-3.62555e-09 0.0226258 6.6303e-09
-3.06544e-09 0.0226258 6.70628e-09
-2.84075e-09 0.0226258 6.77488e-09
-2.73925e-09 0.0226258 6.63826e-09
-2.26782e-09 0.0226258 6.38612e-09
-3.70989e-09 0.0226258 6.75355e-09
-3.20181e-09 0.0226258 6.84631e-09
-2.84029e-09 0.0226258 6.59264e-09
-2.71559e-09 0.0226258 6.41727e-09
-2.23174e-09 0.0226258 6.5127e-09
-3.73195e-09 0.0226258 6.86091e-09
-3.22887e-09 0.0226258 6.56802e-09
-3.05716e-09 0.0226258 6.71231e-09
-2.47115e-09 0.0226258 6.71108e-09
-2.59885e-09 0.0226258 6.48784e-09
-2.89969e-09 0.0239149 5.82939e-09
-2.8627e-09 0.0239149 5.81103e-09
-2.76919e-09 0.0239149 5.44281e-09
-2.75207e-09 0.0239149 5.87625e-09
-2.27422e-09 0.0239149 6.31368e-09
-3.25872e-09 0.0239149 6.13831e-09
-3.00003e-09 0.0239149 5.93371e-09
-2.7641e-09 0.0239149 6.10019e-09
-2.53737e-09 0.0239149 6.19939e-09
-2.41704e-09 0.0239149 6.2331e-09
-3.54338e-09 0.0239149 6.11627e-09
-3.06271e-09 0.0239149 6.09956e-09
-2.68151e-09 0.0239149 6.29215e-09
-2.67074e-09 0.0239149 6.19973e-09
-1.73978e-09 0.0239149 6.2362e-09
-3.67107e-09 0.0239149 6.09735e-09
-3.03468e-09 0.0239149 6.31792e-09
-2.87355e-09 0.0239149 6.168e-09
-2.52733e-09 0.0239149 6.29991e-09
-2.39301e-09 0.0239149 6.04381e-09
-2.78002e-09 0.0239149 6.41138e-09
-3.37651e-09 0.0239149 5.99285e-09
-2.78932e-09 0.0239149 6.40942e-09
-2.49099e-09 0.0239149 6.03786e-09
-2.80322e-09 0.0239149 6.54636e-09
-3.18733e-09 0.0252269 5.28953e-09
-2.93122e-09 0.025227 5.52742e-09
-2.78794e-09 0.0252269 5.74055e-09
-1.9123e-09 0.025227 5.33727e-09
-1.90375e-09 0.0252269 5.33195e-09
-3.13845e-09 0.025227 5.39193e-09
-2.98122e-09 0.0252269 5.39647e-09
-2.57817e-09 0.0252269 5.66283e-09
-2.38179e-09 0.0252269 5.55013e-09
-1.84799e-09 0.0252269 5.68842e-09
-3.61041e-09 0.025227 5.59317e-09
-2.86139e-09 0.0252269 5.78437e-09
-2.40274e-09 0.0252269 5.55036e-09