<?xml version="1.0"?>
<VTKFile type="UnstructuredGrid" version="0.1" byte_order="LittleEndian">
<UnstructuredGrid>
<Piece NumberOfPoints="1025" NumberOfCells="640">
<Points>
<DataArray type="Float32" NumberOfComponents="3" format="ascii">
0 0 0
0.025 0 0
0.05 0 0
0.075 0 0
0.1 0 0
0 0.025 0
0.025 0.025 0
0.05 0.025 0
0.075 0.025 0
0.1 0.025 0
0 0.05 0
0.025 0.05 0
0.05 0.05 0
0.075 0.05 0
0.1 0.05 0
0 0.075 0
0.025 0.075 0
0.05 0.075 0
0.075 0.075 0
0.1 0.075 0
0 0.1 0
0.025 0.1 0
0.05 0.1 0
0.075 0.1 0
0.1 0.1 0
0 0 0.025
0.025 0 0.025
0.05 0 0.025
0.075 0 0.025
0.1 0 0.025
0 0.025 0.025
0.025 0.025 0.025
0.05 0.025 0.025
0.075 0.025 0.025
0.1 0.025 0.025
0 0.05 0.025
0.025 0.05 0.025
0.05 0.05 0.025
0.075 0.05 0.025
0.1 0.05 0.025
0 0.075 0.025
0.025 0.075 0.025
0.05 0.075 0.025
0.075 0.075 0.025
0.1 0.075 0.025
0 0.1 0.025
0.025 0.1 0.025
0.05 0.1 0.025
0.075 0.1 0.025
0.1 0.1 0.025
0 0 0.05
0.025 0 0.05
0.05 0 0.05
0.075 0 0.05
0.1 0 0.05
0 0.025 0.05
0.025 0.025 0.05
0.05 0.025 0.05
0.075 0.025 0.05
0.1 0.025 0.05
0 0.05 0.05
0.025 0.05 0.05
0.05 0.05 0.05
0.075 0.05 0.05
0.1 0.05 0.05
0 0.075 0.05
0.025 0.075 0.05
0.05 0.075 0.05
0.075 0.075 0.05
0.1 0.075 0.05
0 0.1 0.05
0.025 0.1 0.05
0.05 0.1 0.05
0.075 0.1 0.05
0.1 0.1 0.05
0 0 0.075
0.025 0 0.075
0.05 0 0.075
0.075 0 0.075
0.1 0 0.075
0 0.025 0.075
0.025 0.025 0.075
0.05 0.025 0.075
0.075 0.025 0.075
0.1 0.025 0.075
0 0.05 0.075
0.025 0.05 0.075
0.05 0.05 0.075
0.075 0.05 0.075
0.1 0.05 0.075
0 0.075 0.075
0.025 0.075 0.075
0.05 0.075 0.075
0.075 0.075 0.075
0.1 0.075 0.075
0 0.1 0.075
0.025 0.1 0.075
0.05 0.1 0.075
0.075 0.1 0.075
0.1 0.1 0.075
0 0 0.1
0.025 0 0.1
0.05 0 0.1
0.075 0 0.1
0.1 0 0.1
0 0.025 0.1
0.025 0.025 0.1
0.05 0.025 0.1
0.075 0.025 0.1
0.1 0.025 0.1
0 0.05 0.1
0.025 0.05 0.1
0.05 0.05 0.1
0.075 0.05 0.1
0.1 0.05 0.1
0 0.075 0.1
0.025 0.075 0.1
0.05 0.075 0.1
0.075 0.075 0.1
0.1 0.075 0.1
0 0.1 0.1
0.025 0.1 0.1
0.05 0.1 0.1
0.075 0.1 0.1
0.1 0.1 0.1
0 0 0.125
0.025 0 0.125
0.05 0 0.125
0.075 0 0.125
0.1 0 0.125
0 0.025 0.125
0.025 0.025 0.125
0.05 0.025 0.125
0.075 0.025 0.125
0.1 0.025 0.125
0 0.05 0.125
0.025 0.05 0.125
0.05 0.05 0.125
0.075 0.05 0.125
0.1 0.05 0.125
0 0.075 0.125
0.025 0.075 0.125
0.05 0.075 0.125
0.075 0.075 0.125
0.1 0.075 0.125
0 0.1 0.125
0.025 0.1 0.125
0.05 0.1 0.125
0.075 0.1 0.125
0.1 0.1 0.125
0 0 0.15
0.025 0 0.15
0.05 0 0.15
0.075 0 0.15
0.1 0 0.15
0 0.025 0.15
0.025 0.025 0.15
0.05 0.025 0.15
0.075 0.025 0.15
0.1 0.025 0.15
0 0.05 0.15
0.025 0.05 0.15
0.05 0.05 0.15
0.075 0.05 0.15
0.1 0.05 0.15
0 0.075 0.15
0.025 0.075 0.15
0.05 0.075 0.15
0.075 0.075 0.15
0.1 0.075 0.15
0 0.1 0.15
0.025 0.1 0.15
0.05 0.1 0.15
0.075 0.1 0.15
0.1 0.1 0.15
0 0 0.175
0.025 0 0.175
0.05 0 0.175
0.075 0 0.175
0.1 0 0.175
0 0.025 0.175
0.025 0.025 0.175
0.05 0.025 0.175
0.075 0.025 0.175
0.1 0.025 0.175
0 0.05 0.175
0.025 0.05 0.175
0.05 0.05 0.175
0.075 0.05 0.175
0.1 0.05 0.175
0 0.075 0.175
0.025 0.075 0.175
0.05 0.075 0.175
0.075 0.075 0.175
0.1 0.075 0.175
0 0.1 0.175
0.025 0.1 0.175
0.05 0.1 0.175
0.075 0.1 0.175
0.1 0.1 0.175
0 0 0.2
0.025 0 0.2
0.05 0 0.2
0.075 0 0.2
0.1 0 0.2
0 0.025 0.2
0.025 0.025 0.2
0.05 0.025 0.2
0.075 0.025 0.2
0.1 0.025 0.2
0 0.05 0.2
0.025 0.05 0.2
0.05 0.05 0.2
0.075 0.05 0.2
0.1 0.05 0.2
0 0.075 0.2
0.025 0.075 0.2
0.05 0.075 0.2
0.075 0.075 0.2
0.1 0.075 0.2
0 0.1 0.2
0.025 0.1 0.2
0.05 0.1 0.2
0.075 0.1 0.2
0.1 0.1 0.2
0 0 0.225
0.025 0 0.225
0.05 0 0.225
0.075 0 0.225
0.1 0 0.225
0 0.025 0.225
0.025 0.025 0.225
0.05 0.025 0.225
0.075 0.025 0.225
0.1 0.025 0.225
0 0.05 0.225
0.025 0.05 0.225
0.05 0.05 0.225
0.075 0.05 0.225
0.1 0.05 0.225
0 0.075 0.225
0.025 0.075 0.225
0.05 0.075 0.225
0.075 0.075 0.225
0.1 0.075 0.225
0 0.1 0.225
0.025 0.1 0.225
0.05 0.1 0.225
0.075 0.1 0.225
0.1 0.1 0.225
0 0 0.25
0.025 0 0.25
0.05 0 0.25
0.075 0 0.25
0.1 0 0.25
0 0.025 0.25
0.025 0.025 0.25
0.05 0.025 0.25
0.075 0.025 0.25
0.1 0.025 0.25
0 0.05 0.25
0.025 0.05 0.25
0.05 0.05 0.25
0.075 0.05 0.25
0.1 0.05 0.25
0 0.075 0.25
0.025 0.075 0.25
0.05 0.075 0.25
0.075 0.075 0.25
0.1 0.075 0.25
0 0.1 0.25
0.025 0.1 0.25
0.05 0.1 0.25
0.075 0.1 0.25
0.1 0.1 0.25
0 0 0.275
0.025 0 0.275
0.05 0 0.275
0.075 0 0.275
0.1 0 0.275
0 0.025 0.275
0.025 0.025 0.275
0.05 0.025 0.275
0.075 0.025 0.275
0.1 0.025 0.275
0 0.05 0.275
0.025 0.05 0.275
0.05 0.05 0.275
0.075 0.05 0.275
0.1 0.05 0.275
0 0.075 0.275
0.025 0.075 0.275
0.05 0.075 0.275
0.075 0.075 0.275
0.1 0.075 0.275
0 0.1 0.275
0.025 0.1 0.275
0.05 0.1 0.275
0.075 0.1 0.275
0.1 0.1 0.275
0 0 0.3
0.025 0 0.3
0.05 0 0.3
0.075 0 0.3
0.1 0 0.3
0 0.025 0.3
0.025 0.025 0.3
0.05 0.025 0.3
0.075 0.025 0.3
0.1 0.025 0.3
0 0.05 0.3
0.025 0.05 0.3
0.05 0.05 0.3
0.075 0.05 0.3
0.1 0.05 0.3
0 0.075 0.3
0.025 0.075 0.3
0.05 0.075 0.3
0.075 0.075 0.3
0.1 0.075 0.3
0 0.1 0.3
0.025 0.1 0.3
0.05 0.1 0.3
0.075 0.1 0.3
0.1 0.1 0.3
0 0 0.325
0.025 0 0.325
0.05 0 0.325
0.075 0 0.325
0.1 0 0.325
0 0.025 0.325
0.025 0.025 0.325
0.05 0.025 0.325
0.075 0.025 0.325
0.1 0.025 0.325
0 0.05 0.325
0.025 0.05 0.325
0.05 0.05 0.325
0.075 0.05 0.325
0.1 0.05 0.325
0 0.075 0.325
0.025 0.075 0.325
0.05 0.075 0.325
0.075 0.075 0.325
0.1 0.075 0.325
0 0.1 0.325
0.025 0.1 0.325
0.05 0.1 0.325
0.075 0.1 0.325
0.1 0.1 0.325
0 0 0.35
0.025 0 0.35
0.05 0 0.35
0.075 0 0.35
0.1 0 0.35
0 0.025 0.35
0.025 0.025 0.35
0.05 0.025 0.35
0.075 0.025 0.35
0.1 0.025 0.35
0 0.05 0.35
0.025 0.05 0.35
0.05 0.05 0.35
0.075 0.05 0.35
0.1 0.05 0.35
0 0.075 0.35
0.025 0.075 0.35
0.05 0.075 0.35
0.075 0.075 0.35
0.1 0.075 0.35
0 0.1 0.35
0.025 0.1 0.35
0.05 0.1 0.35
0.075 0.1 0.35
0.1 0.1 0.35
0 0 0.375
0.025 0 0.375
0.05 0 0.375
0.075 0 0.375
0.1 0 0.375
0 0.025 0.375
0.025 0.025 0.375
0.05 0.025 0.375
0.075 0.025 0.375
0.1 0.025 0.375
0 0.05 0.375
0.025 0.05 0.375
0.05 0.05 0.375
0.075 0.05 0.375
0.1 0.05 0.375
0 0.075 0.375
0.025 0.075 0.375
0.05 0.075 0.375
0.075 0.075 0.375
0.1 0.075 0.375
0 0.1 0.375
0.025 0.1 0.375
0.05 0.1 0.375
0.075 0.1 0.375
0.1 0.1 0.375
0 0 0.4
0.025 0 0.4
0.05 0 0.4
0.075 0 0.4
0.1 0 0.4
0 0.025 0.4
0.025 0.025 0.4
0.05 0.025 0.4
0.075 0.025 0.4
0.1 0.025 0.4
0 0.05 0.4
0.025 0.05 0.4
0.05 0.05 0.4
0.075 0.05 0.4
0.1 0.05 0.4
0 0.075 0.4
0.025 0.075 0.4
0.05 0.075 0.4
0.075 0.075 0.4
0.1 0.075 0.4
0 0.1 0.4
0.025 0.1 0.4
0.05 0.1 0.4
0.075 0.1 0.4
0.1 0.1 0.4
0 0 0.425
0.025 0 0.425
0.05 0 0.425
0.075 0 0.425
0.1 0 0.425
0 0.025 0.425
0.025 0.025 0.425
0.05 0.025 0.425
0.075 0.025 0.425
0.1 0.025 0.425
0 0.05 0.425
0.025 0.05 0.425
0.05 0.05 0.425
0.075 0.05 0.425
0.1 0.05 0.425
0 0.075 0.425
0.025 0.075 0.425
0.05 0.075 0.425
0.075 0.075 0.425
0.1 0.075 0.425
0 0.1 0.425
0.025 0.1 0.425
0.05 0.1 0.425
0.075 0.1 0.425
0.1 0.1 0.425
0 0 0.45
0.025 0 0.45
0.05 0 0.45
0.075 0 0.45
0.1 0 0.45
0 0.025 0.45
0.025 0.025 0.45
0.05 0.025 0.45
0.075 0.025 0.45
0.1 0.025 0.45
0 0.05 0.45
0.025 0.05 0.45
0.05 0.05 0.45
0.075 0.05 0.45
0.1 0.05 0.45
0 0.075 0.45
0.025 0.075 0.45
0.05 0.075 0.45
0.075 0.075 0.45
0.1 0.075 0.45
0 0.1 0.45
0.025 0.1 0.45
0.05 0.1 0.45
0.075 0.1 0.45
0.1 0.1 0.45
0 0 0.475
0.025 0 0.475
0.05 0 0.475
0.075 0 0.475
0.1 0 0.475
0 0.025 0.475
0.025 0.025 0.475
0.05 0.025 0.475
0.075 0.025 0.475
0.1 0.025 0.475
0 0.05 0.475
0.025 0.05 0.475
0.05 0.05 0.475
0.075 0.05 0.475
0.1 0.05 0.475
0 0.075 0.475
0.025 0.075 0.475
0.05 0.075 0.475
0.075 0.075 0.475
0.1 0.075 0.475
0 0.1 0.475
0.025 0.1 0.475
0.05 0.1 0.475
0.075 0.1 0.475
0.1 0.1 0.475
0 0 0.5
0.025 0 0.5
0.05 0 0.5
0.075 0 0.5
0.1 0 0.5
0 0.025 0.5
0.025 0.025 0.5
0.05 0.025 0.5
0.075 0.025 0.5
0.1 0.025 0.5
0 0.05 0.5
0.025 0.05 0.5
0.05 0.05 0.5
0.075 0.05 0.5
0.1 0.05 0.5
0 0.075 0.5
0.025 0.075 0.5
0.05 0.075 0.5
0.075 0.075 0.5
0.1 0.075 0.5
0 0.1 0.5
0.025 0.1 0.5
0.05 0.1 0.5
0.075 0.1 0.5
0.1 0.1 0.5
0 0 0.525
0.025 0 0.525
0.05 0 0.525
0.075 0 0.525
0.1 0 0.525
0 0.025 0.525
0.025 0.025 0.525
0.05 0.025 0.525
0.075 0.025 0.525
0.1 0.025 0.525
0 0.05 0.525
0.025 0.05 0.525
0.05 0.05 0.525
0.075 0.05 0.525
0.1 0.05 0.525
0 0.075 0.525
0.025 0.075 0.525
0.05 0.075 0.525
0.075 0.075 0.525
0.1 0.075 0.525
0 0.1 0.525
0.025 0.1 0.525
0.05 0.1 0.525
0.075 0.1 0.525
0.1 0.1 0.525
0 0 0.55
0.025 0 0.55
0.05 0 0.55
0.075 0 0.55
0.1 0 0.55
0 0.025 0.55
0.025 0.025 0.55
0.05 0.025 0.55
0.075 0.025 0.55
0.1 0.025 0.55
0 0.05 0.55
0.025 0.05 0.55
0.05 0.05 0.55
0.075 0.05 0.55
0.1 0.05 0.55
0 0.075 0.55
0.025 0.075 0.55
0.05 0.075 0.55
0.075 0.075 0.55
0.1 0.075 0.55
0 0.1 0.55
0.025 0.1 0.55
0.05 0.1 0.55
0.075 0.1 0.55
0.1 0.1 0.55
0 0 0.575
0.025 0 0.575
0.05 0 0.575
0.075 0 0.575
0.1 0 0.575
0 0.025 0.575
0.025 0.025 0.575
0.05 0.025 0.575
0.075 0.025 0.575
0.1 0.025 0.575
0 0.05 0.575
0.025 0.05 0.575
0.05 0.05 0.575
0.075 0.05 0.575
0.1 0.05 0.575
0 0.075 0.575
0.025 0.075 0.575
0.05 0.075 0.575
0.075 0.075 0.575
0.1 0.075 0.575
0 0.1 0.575
0.025 0.1 0.575
0.05 0.1 0.575
0.075 0.1 0.575
0.1 0.1 0.575
0 0 0.6
0.025 0 0.6
0.05 0 0.6
0.075 0 0.6
0.1 0 0.6
0 0.025 0.6
0.025 0.025 0.6
0.05 0.025 0.6
0.075 0.025 0.6
0.1 0.025 0.6
0 0.05 0.6
0.025 0.05 0.6
0.05 0.05 0.6
0.075 0.05 0.6
0.1 0.05 0.6
0 0.075 0.6
0.025 0.075 0.6
0.05 0.075 0.6
0.075 0.075 0.6
0.1 0.075 0.6
0 0.1 0.6
0.025 0.1 0.6
0.05 0.1 0.6
0.075 0.1 0.6
0.1 0.1 0.6
0 0 0.625
0.025 0 0.625
0.05 0 0.625
0.075 0 0.625
0.1 0 0.625
0 0.025 0.625
0.025 0.025 0.625
0.05 0.025 0.625
0.075 0.025 0.625
0.1 0.025 0.625
0 0.05 0.625
0.025 0.05 0.625
0.05 0.05 0.625
0.075 0.05 0.625
0.1 0.05 0.625
0 0.075 0.625
0.025 0.075 0.625
0.05 0.075 0.625
0.075 0.075 0.625
0.1 0.075 0.625
0 0.1 0.625
0.025 0.1 0.625
0.05 0.1 0.625
0.075 0.1 0.625
0.1 0.1 0.625
0 0 0.65
0.025 0 0.65
0.05 0 0.65
0.075 0 0.65
0.1 0 0.65
0 0.025 0.65
0.025 0.025 0.65
0.05 0.025 0.65
0.075 0.025 0.65
0.1 0.025 0.65
0 0.05 0.65
0.025 0.05 0.65
0.05 0.05 0.65
0.075 0.05 0.65
0.1 0.05 0.65
0 0.075 0.65
0.025 0.075 0.65
0.05 0.075 0.65
0.075 0.075 0.65
0.1 0.075 0.65
0 0.1 0.65
0.025 0.1 0.65
0.05 0.1 0.65
0.075 0.1 0.65
0.1 0.1 0.65
0 0 0.675
0.025 0 0.675
0.05 0 0.675
0.075 0 0.675
0.1 0 0.675
[...]
<PointData Vectors="Displacement">
<DataArray type="Float32" Name="Displacement" NumberOfComponents="3" format="ascii">
0 0 0
0 0 0
0 0 0
0 0 0
0 0 0
0 0 0
0 0 0
0 0 0
0 0 0
0 0 0
0 0 0
0 0 0
0 0 0
0 0 0
0 0 0
0 0 0
0 0 0
0 0 0
0 0 0
0 0 0
0 0 0
0 0 0
0 0 0
0 0 0
0 0 0
1.20934e-09 0.00127147 8.01933e-10
1.05558e-09 0.00127147 7.82686e-10
9.6277e-10 0.00127147 7.91229e-10
8.75487e-10 0.00127147 7.96117e-10
7.46702e-10 0.00127147 7.84843e-10
1.20046e-09 0.00127147 7.84173e-10
1.06028e-09 0.00127147 7.82219e-10
9.74718e-10 0.00127147 7.81885e-10
8.83725e-10 0.00127147 7.97495e-10
7.75371e-10 0.00127147 8.02232e-10
1.21992e-09 0.00127147 7.87776e-10
1.04935e-09 0.00127147 7.99085e-10
9.70563e-10 0.00127147 7.83721e-10
8.95781e-10 0.00127147 7.95044e-10
7.36839e-10 0.00127147 7.94862e-10
1.23301e-09 0.00127147 8.11725e-10
1.05178e-09 0.00127147 7.79424e-10
9.69225e-10 0.00127147 7.9987e-10
8.79878e-10 0.00127147 7.97141e-10
7.25744e-10 0.00127147 7.94192e-10
1.22479e-09 0.00127147 8.04447e-10
1.06526e-09 0.00127147 8.08421e-10
9.68046e-10 0.00127147 8.10981e-10
8.68412e-10 0.00127147 7.73921e-10
7.29256e-10 0.00127147 8.18208e-10
2.20361e-09 0.0025428 1.58456e-09
2.04973e-09 0.0025428 1.59977e-09
1.95514e-09 0.0025428 1.6085e-09
1.79703e-09 0.0025428 1.63489e-09
1.5945e-09 0.0025428 1.57541e-09
2.21204e-09 0.0025428 1.62054e-09
2.05744e-09 0.0025428 1.62169e-09
1.92821e-09 0.0025428 1.624e-09
1.81016e-09 0.0025428 1.61089e-09
1.6606e-09 0.0025428 1.61938e-09
2.19761e-09 0.0025428 1.59277e-09
2.0578e-09 0.0025428 1.61745e-09
1.92732e-09 0.0025428 1.56692e-09
1.77504e-09 0.0025428 1.62054e-09
1.69584e-09 0.0025428 1.62996e-09
2.23855e-09 0.0025428 1.60652e-09
2.03779e-09 0.0025428 1.59285e-09
1.92579e-09 0.0025428 1.62237e-09
1.77327e-09 0.0025428 1.62377e-09
1.65614e-09 0.0025428 1.60234e-09
2.24946e-09 0.0025428 1.59233e-09
2.06781e-09 0.0025428 1.60489e-09
1.91112e-09 0.0025428 1.61061e-09
1.78168e-09 0.0025428 1.62999e-09
1.66552e-09 0.0025428 1.62965e-09
3.12294e-09 0.00381383 2.4937e-09
3.00082e-09 0.00381383 2.45806e-09
2.88597e-09 0.00381383 2.45117e-09
2.63289e-09 0.00381383 2.42908e-09
2.61591e-09 0.00381383 2.46641e-09
3.13176e-09 0.00381383 2.39989e-09
2.96164e-09 0.00381383 2.42618e-09
2.85646e-09 0.00381383 2.41215e-09
2.69295e-09 0.00381383 2.47793e-09
2.55723e-09 0.00381383 2.41354e-09
3.12903e-09 0.00381383 2.42716e-09
2.94559e-09 0.00381383 2.40045e-09
2.83857e-09 0.00381383 2.42152e-09
2.70638e-09 0.00381383 2.40847e-09
2.6039e-09 0.00381383 2.40922e-09
3.08535e-09 0.00381383 2.40523e-09
2.97929e-09 0.00381383 2.39928e-09
2.81419e-09 0.00381383 2.40719e-09
2.68695e-09 0.00381383 2.42441e-09
2.57857e-09 0.00381383 2.4364e-09
3.20507e-09 0.00381383 2.41964e-09
2.97529e-09 0.00381383 2.41469e-09
2.83031e-09 0.00381383 2.36649e-09
2.70915e-09 0.00381383 2.45895e-09
2.53646e-09 0.00381383 2.39619e-09
3.959e-09 0.00508442 3.23819e-09
3.84311e-09 0.00508442 3.20677e-09
3.68944e-09 0.00508442 3.19182e-09
3.55495e-09 0.00508442 3.15568e-09
3.57703e-09 0.00508442 3.1794e-09
3.89077e-09 0.00508442 3.22802e-09
3.79048e-09 0.00508442 3.19233e-09
3.6995e-09 0.00508442 3.20413e-09
3.54776e-09 0.00508442 3.20739e-09
3.46905e-09 0.00508442 3.23553e-09
3.85703e-09 0.00508442 3.16437e-09
3.77467e-09 0.00508442 3.20031e-09
3.69274e-09 0.00508442 3.1585e-09
3.53677e-09 0.00508442 3.21528e-09
3.48475e-09 0.00508442 3.20777e-09
3.915e-09 0.00508442 3.19145e-09
3.77213e-09 0.00508442 3.16198e-09
3.66046e-09 0.00508442 3.16035e-09
3.53512e-09 0.00508441 3.19325e-09
3.46773e-09 0.00508442 3.18704e-09
3.91571e-09 0.00508442 3.16889e-09
3.7368e-09 0.00508442 3.18878e-09
3.64133e-09 0.00508441 3.14944e-09
3.561e-09 0.00508442 3.1699e-09
3.41482e-09 0.00508441 3.22034e-09
4.49884e-09 0.0063544 3.99824e-09
4.52619e-09 0.0063544 3.9464e-09
4.46851e-09 0.0063544 3.92018e-09
4.3149e-09 0.0063544 3.99277e-09
4.3775e-09 0.0063544 3.93488e-09
4.62962e-09 0.0063544 3.98747e-09
4.49793e-09 0.0063544 3.97834e-09
4.44271e-09 0.0063544 3.92471e-09
4.33084e-09 0.0063544 3.92237e-09
4.22963e-09 0.0063544 3.96396e-09
4.57087e-09 0.0063544 3.9156e-09
4.47612e-09 0.0063544 3.94026e-09
4.44262e-09 0.0063544 3.95706e-09
4.31125e-09 0.0063544 3.96984e-09
4.24884e-09 0.0063544 4.02897e-09
4.63066e-09 0.0063544 3.93215e-09
4.49329e-09 0.0063544 3.91676e-09
4.42476e-09 0.0063544 3.98798e-09
4.29198e-09 0.0063544 3.95856e-09
4.24834e-09 0.0063544 3.98125e-09
4.69279e-09 0.0063544 3.85815e-09
4.56312e-09 0.0063544 3.93491e-09
4.41604e-09 0.0063544 3.9297e-09
4.32185e-09 0.0063544 4.0059e-09
4.28675e-09 0.0063544 4.02916e-09
5.22237e-09 0.00762363 4.62466e-09
5.04108e-09 0.00762363 4.67016e-09
5.0981e-09 0.00762363 4.57007e-09
4.94316e-09 0.00762363 4.57664e-09
5.10049e-09 0.00762363 4.77039e-09
5.19129e-09 0.00762363 4.65184e-09
5.11582e-09 0.00762363 4.66817e-09
5.06817e-09 0.00762363 4.63888e-09
5.0077e-09 0.00762363 4.68363e-09
4.95794e-09 0.00762363 4.63574e-09
5.2322e-09 0.00762363 4.67871e-09
5.12049e-09 0.00762363 4.65896e-09
5.04969e-09 0.00762363 4.66566e-09
5.04313e-09 0.00762363 4.62715e-09
4.93494e-09 0.00762363 4.64085e-09
5.20706e-09 0.00762363 4.67859e-09
5.14818e-09 0.00762363 4.69319e-09
5.08213e-09 0.00762363 4.72748e-09
4.99678e-09 0.00762363 4.66881e-09
4.94116e-09 0.00762363 4.67545e-09
5.12693e-09 0.00762363 4.68447e-09
5.17323e-09 0.00762363 4.65957e-09
5.13119e-09 0.00762363 4.82506e-09
4.94175e-09 0.00762363 4.75741e-09
5.11092e-09 0.00762363 4.64216e-09
5.54724e-09 0.00889198 5.33337e-09
5.56733e-09 0.00889198 5.23011e-09
5.6316e-09 0.00889198 5.41857e-09
5.682e-09 0.00889198 5.16978e-09
5.40755e-09 0.00889198 5.37126e-09
5.55162e-09 0.00889198 5.2893e-09
5.61527e-09 0.00889198 5.26065e-09
5.62986e-09 0.00889198 5.27159e-09
5.6113e-09 0.00889198 5.32104e-09
5.59607e-09 0.00889198 5.25549e-09
5.71239e-09 0.00889198 5.37567e-09
5.58511e-09 0.00889198 5.33231e-09
5.59534e-09 0.00889198 5.29679e-09
5.56878e-09 0.00889198 5.32326e-09
5.5485e-09 0.00889198 5.24796e-09
5.64817e-09 0.00889198 5.34366e-09
5.69711e-09 0.00889198 5.37646e-09
5.57357e-09 0.00889198 5.30472e-09
5.52512e-09 0.00889198 5.30527e-09
5.52483e-09 0.00889198 5.3012e-09
5.70571e-09 0.00889198 5.47711e-09
5.72666e-09 0.00889198 5.39967e-09
5.64997e-09 0.00889198 5.35236e-09
5.43898e-09 0.00889198 5.42225e-09
5.37666e-09 0.00889198 5.36568e-09
5.98731e-09 0.0101593 5.86775e-09
5.96883e-09 0.0101593 6.02332e-09
6.12087e-09 0.0101593 5.89026e-09
5.99014e-09 0.0101593 5.96385e-09
6.12039e-09 0.0101593 5.80405e-09
5.8754e-09 0.0101593 6.02336e-09
6.02076e-09 0.0101593 5.97174e-09
6.06978e-09 0.0101593 5.94221e-09
5.9196e-09 0.0101593 5.85606e-09
6.17213e-09 0.0101593 5.89288e-09
5.836e-09 0.0101593 5.90256e-09
6.04694e-09 0.0101593 5.87374e-09
6.1068e-09 0.0101593 5.89467e-09
5.87379e-09 0.0101593 5.91414e-09
6.03335e-09 0.0101593 5.91256e-09
6.24901e-09 0.0101593 5.96288e-09
6.03874e-09 0.0101593 6.03838e-09
6.05116e-09 0.0101593 5.91536e-09
5.87317e-09 0.0101593 5.9086e-09
5.88241e-09 0.0101593 5.96867e-09
6.34277e-09 0.0101593 5.95924e-09
5.97075e-09 0.0101593 5.88818e-09
5.94988e-09 0.0101593 5.96668e-09
5.84414e-09 0.0101593 5.99364e-09
6.17574e-09 0.0101593 5.87933e-09
6.24298e-09 0.0114256 6.41067e-09
6.48604e-09 0.0114256 6.36857e-09
6.37665e-09 0.0114256 6.46645e-09
6.26117e-09 0.0114256 6.39302e-09
6.28188e-09 0.0114256 6.32672e-09
6.35183e-09 0.0114256 6.47438e-09
6.26904e-09 0.0114256 6.37882e-09
6.29461e-09 0.0114256 6.36119e-09
6.33898e-09 0.0114256 6.29462e-09
6.27069e-09 0.0114256 6.3612e-09
6.31585e-09 0.0114256 6.43931e-09
6.31407e-09 0.0114256 6.37287e-09
6.37989e-09 0.0114256 6.2429e-09
6.24539e-09 0.0114256 6.39953e-09
6.25729e-09 0.0114256 6.54689e-09
6.51249e-09 0.0114256 6.27305e-09
6.38947e-09 0.0114256 6.35503e-09
6.34373e-09 0.0114256 6.40336e-09
6.28307e-09 0.0114256 6.52599e-09
6.16404e-09 0.0114256 6.44827e-09
6.5349e-09 0.0114256 6.21105e-09
6.51609e-09 0.0114256 6.26642e-09
6.25756e-09 0.0114256 6.34821e-09
6.15991e-09 0.0114256 6.42767e-09
5.89108e-09 0.0114256 6.47844e-09
6.54448e-09 0.0126907 6.97505e-09
6.56632e-09 0.0126907 6.80862e-09
6.45323e-09 0.0126907 6.66281e-09
6.54881e-09 0.0126907 6.63363e-09
6.53566e-09 0.0126907 6.97969e-09
6.3795e-09 0.0126907 6.81155e-09
6.51099e-09 0.0126907 6.79033e-09
6.56871e-09 0.0126907 6.746e-09
6.45551e-09 0.0126907 6.74002e-09
6.70424e-09 0.0126907 6.75779e-09
6.36897e-09 0.0126907 6.73516e-09
6.45162e-09 0.0126907 6.87332e-09
6.47023e-09 0.0126907 6.82285e-09
6.56556e-09 0.0126907 6.86186e-09
6.60821e-09 0.0126907 6.72873e-09
6.46736e-09 0.0126907 6.72134e-09
6.55984e-09 0.0126907 6.60904e-09
6.5785e-09 0.0126907 6.82024e-09
6.456e-09 0.0126907 6.76202e-09
6.48826e-09 0.0126907 6.87419e-09
6.39772e-09 0.0126907 6.72651e-09
6.58818e-09 0.0126907 6.53064e-09
6.7448e-09 0.0126907 6.5713e-09
6.31846e-09 0.0126907 6.94052e-09
6.53445e-09 0.0126907 6.8216e-09
6.74756e-09 0.0139545 7.19485e-09
6.5718e-09 0.0139545 7.20127e-09
6.69414e-09 0.0139545 7.09019e-09
6.5418e-09 0.0139545 7.20278e-09
6.88751e-09 0.0139545 7.25804e-09
6.69394e-09 0.0139545 7.19396e-09
6.52232e-09 0.0139545 7.24321e-09
6.57931e-09 0.0139545 7.05484e-09
6.67209e-09 0.0139545 7.10339e-09
6.63269e-09 0.0139545 7.08227e-09
6.49159e-09 0.0139545 7.16714e-09
6.65932e-09 0.0139545 7.13145e-09
6.56637e-09 0.0139545 7.25113e-09
6.51324e-09 0.0139545 7.07524e-09
6.87443e-09 0.0139545 7.2325e-09
6.35416e-09 0.0139545 7.22273e-09
6.57334e-09 0.0139545 7.114e-09
6.62778e-09 0.0139545 7.14365e-09
6.59811e-09 0.0139545 7.25247e-09
6.65002e-09 0.0139545 7.25215e-09
6.2072e-09 0.0139545 7.12178e-09
6.58357e-09 0.0139545 7.2764e-09
6.65162e-09 0.0139545 6.99886e-09
6.88975e-09 0.0139545 7.04417e-09
6.19994e-09 0.0139545 7.25748e-09
6.71136e-09 0.015217 7.33885e-09
6.60877e-09 0.015217 7.34352e-09
6.52555e-09 0.015217 7.61753e-09
6.64057e-09 0.015217 7.14691e-09
6.5022e-09 0.015217 7.33545e-09
6.45663e-09 0.015217 7.41986e-09
6.5894e-09 0.015217 7.44459e-09
6.57594e-09 0.015217 7.52867e-09
6.54467e-09 0.015217 7.35105e-09
6.73398e-09 0.015217 7.25797e-09
6.65479e-09 0.015217 7.54199e-09
6.4909e-09 0.015217 7.27664e-09
6.67627e-09 0.015217 7.30803e-09
6.58113e-09 0.015217 7.39242e-09
6.5801e-09 0.015217 7.45221e-09
6.4455e-09 0.015217 7.5463e-09
6.49099e-09 0.015217 7.52642e-09
6.78402e-09 0.015217 7.5691e-09
6.59921e-09 0.015217 7.3957e-09
6.40193e-09 0.015217 7.28548e-09
6.71355e-09 0.015217 7.59511e-09
6.51634e-09 0.015217 7.78487e-09
6.74759e-09 0.015217 7.50185e-09
6.59877e-09 0.015217 7.36515e-09
6.33978e-09 0.015217 7.33554e-09
6.26211e-09 0.0164781 7.58341e-09
6.7406e-09 0.0164781 7.35814e-09
6.58076e-09 0.0164781 7.46699e-09
6.31193e-09 0.0164781 7.2404e-09
7.08377e-09 0.0164781 7.53756e-09
6.57505e-09 0.0164781 7.41233e-09
6.49143e-09 0.0164781 7.46105e-09
6.56759e-09 0.0164781 7.33659e-09
6.62188e-09 0.0164781 7.46572e-09
6.70551e-09 0.0164781 7.34261e-09
6.41858e-09 0.0164781 7.41778e-09
6.47629e-09 0.0164781 7.65337e-09
6.67964e-09 0.0164781 7.55098e-09
6.6644e-09 0.0164781 7.43992e-09
6.46102e-09 0.0164781 7.29825e-09
6.19564e-09 0.0164781 7.64083e-09
6.59801e-09 0.0164781 7.67556e-09
6.7019e-09 0.0164781 7.68446e-09
6.55697e-09 0.0164781 7.2892e-09
6.52129e-09 0.0164781 7.1916e-09
6.24105e-09 0.0164781 7.69334e-09
6.59058e-09 0.0164781 7.64893e-09
6.6621e-09 0.0164781 7.73113e-09
6.58063e-09 0.0164781 7.52082e-09
6.91577e-09 0.0164781 7.23762e-09
6.73116e-09 0.0177376 7.19076e-09
6.57615e-09 0.0177376 7.06459e-09
6.50295e-09 0.0177376 7.0319e-09
6.51578e-09 0.0177376 7.03638e-09
6.18017e-09 0.0177376 7.3684e-09
6.69313e-09 0.0177376 7.19354e-09
6.52482e-09 0.0177376 7.20997e-09
6.53082e-09 0.0177376 7.23647e-09
6.40373e-09 0.0177376 7.09198e-09
6.40932e-09 0.0177376 7.13911e-09
6.15964e-09 0.0177376 7.39904e-09
6.62472e-09 0.0177376 7.40293e-09
6.58359e-09 0.0177376 7.48234e-09
6.4505e-09 0.0177376 7.04674e-09
6.46914e-09 0.0177376 7.07969e-09
6.36664e-09 0.0177376 7.55981e-09
6.52244e-09 0.0177376 7.58297e-09
6.67966e-09 0.0177376 7.29396e-09
6.38727e-09 0.0177376 7.13707e-09
6.42303e-09 0.0177376 6.97257e-09
6.27317e-09 0.0177376 7.77845e-09
6.54984e-09 0.0177376 7.36759e-09
6.58825e-09 0.0177376 7.19881e-09
6.4147e-09 0.0177376 7.06546e-09
6.75069e-09 0.0177376 7.22737e-09
6.25425e-09 0.0189957 6.45809e-09
6.45593e-09 0.0189957 6.52175e-09
6.31991e-09 0.0189957 6.4744e-09
6.3881e-09 0.0189957 6.51501e-09
6.56432e-09 0.0189957 6.84751e-09
6.34057e-09 0.0189957 6.81869e-09
6.46746e-09 0.0189957 6.76984e-09
6.4307e-09 0.0189957 6.77837e-09
6.28037e-09 0.0189957 6.689e-09
6.40806e-09 0.0189957 6.56686e-09
6.54467e-09 0.0189957 7.00486e-09
6.43973e-09 0.0189957 6.83709e-09
6.36938e-09 0.0189957 6.67738e-09
6.28186e-09 0.0189957 6.72784e-09
6.56614e-09 0.0189957 6.53748e-09
6.64211e-09 0.0189957 6.99498e-09
6.32253e-09 0.0189957 6.89598e-09
6.38695e-09 0.0189957 6.88978e-09
6.41715e-09 0.0189957 6.64893e-09
6.47206e-09 0.0189957 6.66088e-09
6.8211e-09 0.0189957 6.84819e-09
6.18289e-09 0.0189957 6.8665e-09
6.34811e-09 0.0189957 6.92083e-09
6.22475e-09 0.0189957 6.52289e-09
6.64542e-09 0.0189957 7.01217e-09
5.73556e-09 0.0202522 6.15326e-09
6.42265e-09 0.0202522 6.25814e-09
6.4063e-09 0.0202522 6.23406e-09
6.16174e-09 0.0202522 6.05928e-09
6.75108e-09 0.0202522 6.1702e-09
6.12755e-09 0.0202522 6.18047e-09
6.43553e-09 0.0202522 6.17121e-09
6.32002e-09 0.0202522 6.12931e-09
6.24395e-09 0.0202522 6.02994e-09
6.38294e-09 0.0202522 5.98305e-09
6.70921e-09 0.0202522 6.35814e-09
6.19669e-09 0.0202522 6.33441e-09
6.30653e-09 0.0202522 6.21495e-09
6.1599e-09 0.0202522 6.07113e-09
6.39454e-09 0.0202522 6.21576e-09
6.57734e-09 0.0202522 6.14857e-09
6.30348e-09 0.0202522 6.15374e-09
6.1646e-09 0.0202522 6.32102e-09
6.17305e-09 0.0202522 6.33122e-09
6.72175e-09 0.0202522 6.0151e-09
6.41774e-09 0.0202522 6.28952e-09
6.46567e-09 0.0202522 6.20524e-09
6.06705e-09 0.0202522 6.00609e-09
6.44257e-09 0.0202522 6.11788e-09
6.08236e-09 0.0202522 6.07502e-09
6.13589e-09 0.0215071 6.05565e-09
6.24778e-09 0.0215071 5.43541e-09
6.33968e-09 0.0215071 5.85948e-09
6.09706e-09 0.0215071 5.33092e-09
6.11171e-09 0.0215071 5.30804e-09
6.67468e-09 0.0215071 5.51725e-09
6.08223e-09 0.0215071 5.62459e-09
6.3166e-09 0.0215071 5.52238e-09
6.03662e-09 0.0215071 5.57676e-09
6.11574e-09 0.0215071 5.29299e-09
6.53696e-09 0.0215071 5.3687e-09
6.32386e-09 0.0215071 5.22505e-09
6.04942e-09 0.0215071 5.41382e-09
6.309e-09 0.0215071 5.45109e-09
6.18436e-09 0.0215071 5.54451e-09
6.21255e-09 0.0215071 5.35641e-09
6.15405e-09 0.0215071 5.26419e-09
6.22664e-09 0.0215071 5.26592e-09
6.23523e-09 0.0215071 5.30199e-09
5.85288e-09 0.0215071 5.55403e-09
6.95342e-09 0.0215071 5.32894e-09
5.92724e-09 0.0215071 5.39042e-09
6.54038e-09 0.0215071 5.10565e-09
6.25142e-09 0.0215071 5.56156e-09
6.04443e-09 0.0215071 5.27789e-09
5.46526e-09 0.0227604 4.67394e-09
5.79039e-09 0.0227604 4.48206e-09
6.37395e-09 0.0227604 4.61262e-09
6.25912e-09 0.0227604 4.44755e-09
6.96791e-09 0.0227604 4.38565e-09
6.13007e-09 0.0227604 4.49263e-09
5.99408e-09 0.0227604 4.44709e-09
6.31732e-09 0.0227604 4.55235e-09
6.12887e-09 0.0227604 4.36351e-09
6.80034e-09 0.0227604 4.33072e-09
6.10248e-09 0.0227604 4.44459e-09
5.98485e-09 0.0227604 4.19011e-09
6.15147e-09 0.0227604 4.21871e-09
6.4113e-09 0.0227604 4.42813e-09
6.13564e-09 0.0227604 4.51572e-09
6.23066e-09 0.0227604 4.24018e-09
6.04638e-09 0.0227604 4.19091e-09
6.14247e-09 0.0227604 4.4752e-09
6.39101e-09 0.0227604 4.41565e-09
6.36546e-09 0.0227604 4.34664e-09
5.94358e-09 0.0227604 4.35001e-09
6.05603e-09 0.0227604 4.54211e-09
6.0946e-09 0.0227604 4.4057e-09
6.37169e-09 0.0227604 4.10476e-09
6.37438e-09 0.0227604 4.57505e-09
5.10651e-09 0.0240121 3.11164e-09
6.10314e-09 0.0240121 3.67431e-09
6.28274e-09 0.0240121 3.39722e-09
6.71501e-09 0.0240121 3.10864e-09
7.13587e-09 0.0240121 3.37174e-09
5.81559e-09 0.0240121 3.54459e-09
5.86124e-09 0.0240121 3.27818e-09
6.38276e-09 0.0240121 3.3284e-09
6.53138e-09 0.0240121 3.37085e-09
6.98062e-09 0.0240121 3.15039e-09
5.79314e-09 0.0240121 3.26016e-09
6.10795e-09 0.0240121 3.41791e-09
6.30694e-09 0.0240121 3.26393e-09
6.53709e-09 0.0240121 3.27288e-09
6.86493e-09 0.0240121 3.22488e-09
6.09842e-09 0.0240121 3.29676e-09
6.12535e-09 0.0240121 3.34054e-09
6.19599e-09 0.0240121 3.53277e-09
6.45444e-09 0.0240121 3.44478e-09
7.01333e-09 0.0240121 3.25742e-09
5.88567e-09 0.0240121 3.54391e-09
6.16973e-09 0.0240121 3.18955e-09
6.48052e-09 0.0240121 3.28038e-09
6.50204e-09 0.0240121 3.10942e-09
7.04504e-09 0.0240121 3.35466e-09
5.75883e-09 0.0252621 2.8503e-09
5.9124e-09 0.0252621 2.79288e-09
6.51215e-09 0.0252621 2.80667e-09
6.33711e-09 0.0252621 2.45999e-09
7.42468e-09 0.0252621 2.47936e-09
5.7203e-09 0.0252621 2.67086e-09
6.12572e-09 0.0252621 2.66074e-09
6.34731e-09 0.0252621 2.63333e-09
6.6022e-09 0.0252621 2.39555e-09
6.85174e-09 0.0252621 2.34366e-09
6.16238e-09 0.0252621 2.52892e-09
5.91407e-09 0.0252621 2.6018e-09
6.40833e-09 0.0252621 2.49865e-09
6.60413e-09 0.0252621 2.27792e-09
7.05907e-09 0.0252621 2.12721e-09
5.97209e-09 0.0252621 2.5308e-09
6.13931e-09 0.0252621 2.46326e-09
6.22615e-09 0.0252621 2.5005e-09
6.47569e-09 0.0252621 2.54539e-09
6.76642e-09 0.0252621 2.34157e-09
6.22898e-09 0.0252621 2.38428e-09
6.27358e-09 0.0252621 2.37935e-09
6.22283e-09 0.0252621 2.31321e-09
6.33679e-09 0.0252621 2.59133e-09
7.1386e-09 0.0252621 2.70442e-09
6.05996e-09 0.0265105 2.34477e-09
6.04889e-09 0.0265105 1.90216e-09
6.68397e-09 0.0265105 1.91598e-09
6.30252e-09 0.0265105 1.64467e-09
6.49836e-09 0.0265105 1.86603e-09
5.94937e-09 0.0265105 2.01669e-09
6.15157e-09 0.0265105 1.96875e-09
6.49257e-09 0.0265105 1.79793e-09
6.51722e-09 0.0265105 1.75699e-09
6.93417e-09 0.0265105 1.7419e-09
6.03484e-09 0.0265105 1.93036e-09
6.13785e-09 0.0265105 1.80297e-09
6.32544e-09 0.0265105 1.83249e-09
6.6118e-09 0.0265105 1.7089e-09
7.31061e-09 0.0265105 1.44678e-09
5.71548e-09 0.0265105 1.91048e-09
6.08443e-09 0.0265105 1.98246e-09
6.37599e-09 0.0265105 1.97168e-09
6.52126e-09 0.0265105 1.52176e-09
6.93276e-09 0.0265105 1.81127e-09
6.25657e-09 0.0265105 1.99422e-09
6.14473e-09 0.0265105 1.94429e-09
6.24037e-09 0.0265105 1.65034e-09
6.64257e-09 0.0265105 1.86369e-09
6.72211e-09 0.0265105 1.80457e-09
6.58506e-09 0.0277573 1.21667e-09
6.66857e-09 0.0277573 1.18623e-09
6.32749e-09 0.0277574 8.9665e-10
6.79299e-09 0.0277574 1.31039e-09
6.44515e-09 0.0277574 1.48908e-09
6.15453e-09 0.0277573 1.47346e-09
6.4445e-09 0.0277574 1.26178e-09
6.58547e-09 0.0277574 1.01444e-09
6.6755e-09 0.0277574 1.38226e-09
7.19409e-09 0.0277574 1.39201e-09
6.1723e-09 0.0277574 1.26248e-09
6.19605e-09 0.0277573 1.41303e-09
6.6026e-09 0.0277574 1.31958e-09
6.72506e-09 0.0277574 1.11082e-09
7.25236e-09 0.0277573 1.29934e-09
5.88328e-09 0.0277573 1.26946e-09
6.39234e-09 0.0277573 1.55568e-09
6.30929e-09 0.0277573 1.52917e-09
6.70757e-09 0.0277573 1.31708e-09
7.23274e-09 0.0277573 1.15991e-09
6.3672e-09 0.0277573 1.67242e-09
6.12636e-09 0.0277573 1.17125e-09
6.28121e-09 0.0277573 1.50075e-09
6.40499e-09 0.0277573 1.30348e-09
6.8027e-09 0.0277573 1.50833e-09
6.26936e-09 0.0290027 1.03921e-09
6.59623e-09 0.0290027 6.05467e-10
6.71542e-09 0.0290027 4.40096e-10
6.78933e-09 0.0290027 5.07211e-10
7.1709e-09 0.0290027 5.57851e-10
6.64782e-09 0.0290027 6.91012e-10
6.42762e-09 0.0290027 8.00189e-10
6.74009e-09 0.0290027 8.8668e-10
6.78569e-09 0.0290027 8.23963e-10
7.10707e-09 0.0290027 8.33039e-10
6.306e-09 0.0290027 8.40521e-10
6.48299e-09 0.0290027 9.48798e-10
6.65198e-09 0.0290027 9.09437e-10
6.58577e-09 0.0290027 9.82881e-10
7.3923e-09 0.0290027 1.01315e-09
6.48282e-09 0.0290027 9.20119e-10
6.40763e-09 0.0290027 7.81792e-10
6.6175e-09 0.0290027 9.88995e-10
6.54267e-09 0.0290027 8.8103e-10
7.26372e-09 0.0290027 9.71965e-10
6.65573e-09 0.0290027 6.92996e-10
6.60327e-09 0.0290027 6.34094e-10
6.74228e-09 0.0290027 8.45903e-10
6.60845e-09 0.0290027 1.20091e-09
6.35609e-09 0.0290027 7.28712e-10
6.9425e-09 0.0302466 3.19206e-10
6.61371e-09 0.0302466 2.06876e-10
6.75926e-09 0.0302466 -6.37606e-11
7.11018e-09 0.0302466 8.75842e-11
7.19349e-09 0.0302466 -4.0068e-10
6.76995e-09 0.0302466 2.20557e-10