<?xml version="1.0"?>
<VTKFile type="UnstructuredGrid" version="0.1" byte_order="LittleEndian">
<UnstructuredGrid>
<Piece NumberOfPoints="1025" NumberOfCells="640">
<Points>
<DataArray type="Float32" NumberOfComponents="3" format="ascii">
0 0 0
0.025 0 0
0.05 0 0
0.075 0 0
0.1 0 0
0 0.025 0
0.025 0.025 0
0.05 0.025 0
0.075 0.025 0
0.1 0.025 0
0 0.05 0
0.025 0.05 0
0.05 0.05 0
0.075 0.05 0
0.1 0.05 0
0 0.075 0
0.025 0.075 0
0.05 0.075 0
0.075 0.075 0
0.1 0.075 0
0 0.1 0
0.025 0.1 0
0.05 0.1 0
0.075 0.1 0
0.1 0.1 0
0 0 0.025
0.025 0 0.025
0.05 0 0.025
0.075 0 0.025
0.1 0 0.025
0 0.025 0.025
0.025 0.025 0.025
0.05 0.025 0.025
0.075 0.025 0.025
0.1 0.025 0.025
0 0.05 0.025
0.025 0.05 0.025
0.05 0.05 0.025
0.075 0.05 0.025
0.1 0.05 0.025
0 0.075 0.025
0.025 0.075 0.025
0.05 0.075 0.025
0.075 0.075 0.025
0.1 0.075 0.025
0 0.1 0.025
0.025 0.1 0.025
0.05 0.1 0.025
0.075 0.1 0.025
0.1 0.1 0.025
0 0 0.05
0.025 0 0.05
0.05 0 0.05
0.075 0 0.05
0.1 0 0.05
0 0.025 0.05
0.025 0.025 0.05
0.05 0.025 0.05
0.075 0.025 0.05
0.1 0.025 0.05
0 0.05 0.05
0.025 0.05 0.05
0.05 0.05 0.05
0.075 0.05 0.05
0.1 0.05 0.05
0 0.075 0.05
0.025 0.075 0.05
0.05 0.075 0.05
0.075 0.075 0.05
0.1 0.075 0.05
0 0.1 0.05
0.025 0.1 0.05
0.05 0.1 0.05
0.075 0.1 0.05
0.1 0.1 0.05
0 0 0.075
0.025 0 0.075
0.05 0 0.075
0.075 0 0.075
0.1 0 0.075
0 0.025 0.075
0.025 0.025 0.075
0.05 0.025 0.075
0.075 0.025 0.075
0.1 0.025 0.075
0 0.05 0.075
0.025 0.05 0.075
0.05 0.05 0.075
0.075 0.05 0.075
0.1 0.05 0.075
0 0.075 0.075
0.025 0.075 0.075
0.05 0.075 0.075
0.075 0.075 0.075
0.1 0.075 0.075
0 0.1 0.075
0.025 0.1 0.075
0.05 0.1 0.075
0.075 0.1 0.075
0.1 0.1 0.075
0 0 0.1
0.025 0 0.1
0.05 0 0.1
0.075 0 0.1
0.1 0 0.1
0 0.025 0.1
0.025 0.025 0.1
0.05 0.025 0.1
0.075 0.025 0.1
0.1 0.025 0.1
0 0.05 0.1
0.025 0.05 0.1
0.05 0.05 0.1
0.075 0.05 0.1
0.1 0.05 0.1
0 0.075 0.1
0.025 0.075 0.1
0.05 0.075 0.1
0.075 0.075 0.1
0.1 0.075 0.1
0 0.1 0.1
0.025 0.1 0.1
0.05 0.1 0.1
0.075 0.1 0.1
0.1 0.1 0.1
0 0 0.125
0.025 0 0.125
0.05 0 0.125
0.075 0 0.125
0.1 0 0.125
0 0.025 0.125
0.025 0.025 0.125
0.05 0.025 0.125
0.075 0.025 0.125
0.1 0.025 0.125
0 0.05 0.125
0.025 0.05 0.125
0.05 0.05 0.125
0.075 0.05 0.125
0.1 0.05 0.125
0 0.075 0.125
0.025 0.075 0.125
0.05 0.075 0.125
0.075 0.075 0.125
0.1 0.075 0.125
0 0.1 0.125
0.025 0.1 0.125
0.05 0.1 0.125
0.075 0.1 0.125
0.1 0.1 0.125
0 0 0.15
0.025 0 0.15
0.05 0 0.15
0.075 0 0.15
0.1 0 0.15
0 0.025 0.15
0.025 0.025 0.15
0.05 0.025 0.15
0.075 0.025 0.15
0.1 0.025 0.15
0 0.05 0.15
0.025 0.05 0.15
0.05 0.05 0.15
0.075 0.05 0.15
0.1 0.05 0.15
0 0.075 0.15
0.025 0.075 0.15
0.05 0.075 0.15
0.075 0.075 0.15
0.1 0.075 0.15
0 0.1 0.15
0.025 0.1 0.15
0.05 0.1 0.15
0.075 0.1 0.15
0.1 0.1 0.15
0 0 0.175
0.025 0 0.175
0.05 0 0.175
0.075 0 0.175
0.1 0 0.175
0 0.025 0.175
0.025 0.025 0.175
0.05 0.025 0.175
0.075 0.025 0.175
0.1 0.025 0.175
0 0.05 0.175
0.025 0.05 0.175
0.05 0.05 0.175
0.075 0.05 0.175
0.1 0.05 0.175
0 0.075 0.175
0.025 0.075 0.175
0.05 0.075 0.175
0.075 0.075 0.175
0.1 0.075 0.175
0 0.1 0.175
0.025 0.1 0.175
0.05 0.1 0.175
0.075 0.1 0.175
0.1 0.1 0.175
0 0 0.2
0.025 0 0.2
0.05 0 0.2
0.075 0 0.2
0.1 0 0.2
0 0.025 0.2
0.025 0.025 0.2
0.05 0.025 0.2
0.075 0.025 0.2
0.1 0.025 0.2
0 0.05 0.2
0.025 0.05 0.2
0.05 0.05 0.2
0.075 0.05 0.2
0.1 0.05 0.2
0 0.075 0.2
0.025 0.075 0.2
0.05 0.075 0.2
0.075 0.075 0.2
0.1 0.075 0.2
0 0.1 0.2
0.025 0.1 0.2
0.05 0.1 0.2
0.075 0.1 0.2
0.1 0.1 0.2
0 0 0.225
0.025 0 0.225
0.05 0 0.225
0.075 0 0.225
0.1 0 0.225
0 0.025 0.225
0.025 0.025 0.225
0.05 0.025 0.225
0.075 0.025 0.225
0.1 0.025 0.225
0 0.05 0.225
0.025 0.05 0.225
0.05 0.05 0.225
0.075 0.05 0.225
0.1 0.05 0.225
0 0.075 0.225
0.025 0.075 0.225
0.05 0.075 0.225
0.075 0.075 0.225
0.1 0.075 0.225
0 0.1 0.225
0.025 0.1 0.225
0.05 0.1 0.225
0.075 0.1 0.225
0.1 0.1 0.225
0 0 0.25
0.025 0 0.25
0.05 0 0.25
0.075 0 0.25
0.1 0 0.25
0 0.025 0.25
0.025 0.025 0.25
0.05 0.025 0.25
0.075 0.025 0.25
0.1 0.025 0.25
0 0.05 0.25
0.025 0.05 0.25
0.05 0.05 0.25
0.075 0.05 0.25
0.1 0.05 0.25
0 0.075 0.25
0.025 0.075 0.25
0.05 0.075 0.25
0.075 0.075 0.25
0.1 0.075 0.25
0 0.1 0.25
0.025 0.1 0.25
0.05 0.1 0.25
0.075 0.1 0.25
0.1 0.1 0.25
0 0 0.275
0.025 0 0.275
0.05 0 0.275
0.075 0 0.275
0.1 0 0.275
0 0.025 0.275
0.025 0.025 0.275
0.05 0.025 0.275
0.075 0.025 0.275
0.1 0.025 0.275
0 0.05 0.275
0.025 0.05 0.275
0.05 0.05 0.275
0.075 0.05 0.275
0.1 0.05 0.275
0 0.075 0.275
0.025 0.075 0.275
0.05 0.075 0.275
0.075 0.075 0.275
0.1 0.075 0.275
0 0.1 0.275
0.025 0.1 0.275
0.05 0.1 0.275
0.075 0.1 0.275
0.1 0.1 0.275
0 0 0.3
0.025 0 0.3
0.05 0 0.3
0.075 0 0.3
0.1 0 0.3
0 0.025 0.3
0.025 0.025 0.3
0.05 0.025 0.3
0.075 0.025 0.3
0.1 0.025 0.3
0 0.05 0.3
0.025 0.05 0.3
0.05 0.05 0.3
0.075 0.05 0.3
0.1 0.05 0.3
0 0.075 0.3
0.025 0.075 0.3
0.05 0.075 0.3
0.075 0.075 0.3
0.1 0.075 0.3
0 0.1 0.3
0.025 0.1 0.3
0.05 0.1 0.3
0.075 0.1 0.3
0.1 0.1 0.3
0 0 0.325
0.025 0 0.325
0.05 0 0.325
0.075 0 0.325
0.1 0 0.325
0 0.025 0.325
0.025 0.025 0.325
0.05 0.025 0.325
0.075 0.025 0.325
0.1 0.025 0.325
0 0.05 0.325
0.025 0.05 0.325
0.05 0.05 0.325
0.075 0.05 0.325
0.1 0.05 0.325
0 0.075 0.325
0.025 0.075 0.325
0.05 0.075 0.325
0.075 0.075 0.325
0.1 0.075 0.325
0 0.1 0.325
0.025 0.1 0.325
0.05 0.1 0.325
0.075 0.1 0.325
0.1 0.1 0.325
0 0 0.35
0.025 0 0.35
0.05 0 0.35
0.075 0 0.35
0.1 0 0.35
0 0.025 0.35
0.025 0.025 0.35
0.05 0.025 0.35
0.075 0.025 0.35
0.1 0.025 0.35
0 0.05 0.35
0.025 0.05 0.35
0.05 0.05 0.35
0.075 0.05 0.35
0.1 0.05 0.35
0 0.075 0.35
0.025 0.075 0.35
0.05 0.075 0.35
0.075 0.075 0.35
0.1 0.075 0.35
0 0.1 0.35
0.025 0.1 0.35
0.05 0.1 0.35
0.075 0.1 0.35
0.1 0.1 0.35
0 0 0.375
0.025 0 0.375
0.05 0 0.375
0.075 0 0.375
0.1 0 0.375
0 0.025 0.375
0.025 0.025 0.375
0.05 0.025 0.375
0.075 0.025 0.375
0.1 0.025 0.375
0 0.05 0.375
0.025 0.05 0.375
0.05 0.05 0.375
0.075 0.05 0.375
0.1 0.05 0.375
0 0.075 0.375
0.025 0.075 0.375
0.05 0.075 0.375
0.075 0.075 0.375
0.1 0.075 0.375
0 0.1 0.375
0.025 0.1 0.375
0.05 0.1 0.375
0.075 0.1 0.375
0.1 0.1 0.375
0 0 0.4
0.025 0 0.4
0.05 0 0.4
0.075 0 0.4
0.1 0 0.4
0 0.025 0.4
0.025 0.025 0.4
0.05 0.025 0.4
0.075 0.025 0.4
0.1 0.025 0.4
0 0.05 0.4
0.025 0.05 0.4
0.05 0.05 0.4
0.075 0.05 0.4
0.1 0.05 0.4
0 0.075 0.4
0.025 0.075 0.4
0.05 0.075 0.4
0.075 0.075 0.4
0.1 0.075 0.4
0 0.1 0.4
0.025 0.1 0.4
0.05 0.1 0.4
0.075 0.1 0.4
0.1 0.1 0.4
0 0 0.425
0.025 0 0.425
0.05 0 0.425
0.075 0 0.425
0.1 0 0.425
0 0.025 0.425
0.025 0.025 0.425
0.05 0.025 0.425
0.075 0.025 0.425
0.1 0.025 0.425
0 0.05 0.425
0.025 0.05 0.425
0.05 0.05 0.425
0.075 0.05 0.425
0.1 0.05 0.425
0 0.075 0.425
0.025 0.075 0.425
0.05 0.075 0.425
0.075 0.075 0.425
0.1 0.075 0.425
0 0.1 0.425
0.025 0.1 0.425
0.05 0.1 0.425
0.075 0.1 0.425
0.1 0.1 0.425
0 0 0.45
0.025 0 0.45
0.05 0 0.45
0.075 0 0.45
0.1 0 0.45
0 0.025 0.45
0.025 0.025 0.45
0.05 0.025 0.45
0.075 0.025 0.45
0.1 0.025 0.45
0 0.05 0.45
0.025 0.05 0.45
0.05 0.05 0.45
0.075 0.05 0.45
0.1 0.05 0.45
0 0.075 0.45
0.025 0.075 0.45
0.05 0.075 0.45
0.075 0.075 0.45
0.1 0.075 0.45
0 0.1 0.45
0.025 0.1 0.45
0.05 0.1 0.45
0.075 0.1 0.45
0.1 0.1 0.45
0 0 0.475
0.025 0 0.475
0.05 0 0.475
0.075 0 0.475
0.1 0 0.475
0 0.025 0.475
0.025 0.025 0.475
0.05 0.025 0.475
0.075 0.025 0.475
0.1 0.025 0.475
0 0.05 0.475
0.025 0.05 0.475
0.05 0.05 0.475
0.075 0.05 0.475
0.1 0.05 0.475
0 0.075 0.475
0.025 0.075 0.475
0.05 0.075 0.475
0.075 0.075 0.475
0.1 0.075 0.475
0 0.1 0.475
0.025 0.1 0.475
0.05 0.1 0.475
0.075 0.1 0.475
0.1 0.1 0.475
0 0 0.5
0.025 0 0.5
0.05 0 0.5
0.075 0 0.5
0.1 0 0.5
0 0.025 0.5
0.025 0.025 0.5
0.05 0.025 0.5
0.075 0.025 0.5
0.1 0.025 0.5
0 0.05 0.5
0.025 0.05 0.5
0.05 0.05 0.5
0.075 0.05 0.5
0.1 0.05 0.5
0 0.075 0.5
0.025 0.075 0.5
0.05 0.075 0.5
0.075 0.075 0.5
0.1 0.075 0.5
0 0.1 0.5
0.025 0.1 0.5
0.05 0.1 0.5
0.075 0.1 0.5
0.1 0.1 0.5
0 0 0.525
0.025 0 0.525
0.05 0 0.525
0.075 0 0.525
0.1 0 0.525
0 0.025 0.525
0.025 0.025 0.525
0.05 0.025 0.525
0.075 0.025 0.525
0.1 0.025 0.525
0 0.05 0.525
0.025 0.05 0.525
0.05 0.05 0.525
0.075 0.05 0.525
0.1 0.05 0.525
0 0.075 0.525
0.025 0.075 0.525
0.05 0.075 0.525
0.075 0.075 0.525
0.1 0.075 0.525
0 0.1 0.525
0.025 0.1 0.525
0.05 0.1 0.525
0.075 0.1 0.525
0.1 0.1 0.525
0 0 0.55
0.025 0 0.55
0.05 0 0.55
0.075 0 0.55
0.1 0 0.55
0 0.025 0.55
0.025 0.025 0.55
0.05 0.025 0.55
0.075 0.025 0.55
0.1 0.025 0.55
0 0.05 0.55
0.025 0.05 0.55
0.05 0.05 0.55
0.075 0.05 0.55
0.1 0.05 0.55
0 0.075 0.55
0.025 0.075 0.55
0.05 0.075 0.55
0.075 0.075 0.55
0.1 0.075 0.55
0 0.1 0.55
0.025 0.1 0.55
0.05 0.1 0.55
0.075 0.1 0.55
0.1 0.1 0.55
0 0 0.575
0.025 0 0.575
0.05 0 0.575
0.075 0 0.575
0.1 0 0.575
0 0.025 0.575
0.025 0.025 0.575
0.05 0.025 0.575
0.075 0.025 0.575
0.1 0.025 0.575
0 0.05 0.575
0.025 0.05 0.575
0.05 0.05 0.575
0.075 0.05 0.575
0.1 0.05 0.575
0 0.075 0.575
0.025 0.075 0.575
0.05 0.075 0.575
0.075 0.075 0.575
0.1 0.075 0.575
0 0.1 0.575
0.025 0.1 0.575
0.05 0.1 0.575
0.075 0.1 0.575
0.1 0.1 0.575
0 0 0.6
0.025 0 0.6
0.05 0 0.6
0.075 0 0.6
0.1 0 0.6
0 0.025 0.6
0.025 0.025 0.6
0.05 0.025 0.6
0.075 0.025 0.6
0.1 0.025 0.6
0 0.05 0.6
0.025 0.05 0.6
0.05 0.05 0.6
0.075 0.05 0.6
0.1 0.05 0.6
0 0.075 0.6
0.025 0.075 0.6
0.05 0.075 0.6
0.075 0.075 0.6
0.1 0.075 0.6
0 0.1 0.6
0.025 0.1 0.6
0.05 0.1 0.6
0.075 0.1 0.6
0.1 0.1 0.6
0 0 0.625
0.025 0 0.625
0.05 0 0.625
0.075 0 0.625
0.1 0 0.625
0 0.025 0.625
0.025 0.025 0.625
0.05 0.025 0.625
0.075 0.025 0.625
0.1 0.025 0.625
0 0.05 0.625
0.025 0.05 0.625
0.05 0.05 0.625
0.075 0.05 0.625
0.1 0.05 0.625
0 0.075 0.625
0.025 0.075 0.625
0.05 0.075 0.625
0.075 0.075 0.625
0.1 0.075 0.625
0 0.1 0.625
0.025 0.1 0.625
0.05 0.1 0.625
0.075 0.1 0.625
0.1 0.1 0.625
0 0 0.65
0.025 0 0.65
0.05 0 0.65
0.075 0 0.65
0.1 0 0.65
0 0.025 0.65
0.025 0.025 0.65
0.05 0.025 0.65
0.075 0.025 0.65
0.1 0.025 0.65
0 0.05 0.65
0.025 0.05 0.65
0.05 0.05 0.65
0.075 0.05 0.65
0.1 0.05 0.65
0 0.075 0.65
0.025 0.075 0.65
0.05 0.075 0.65
0.075 0.075 0.65
0.1 0.075 0.65
0 0.1 0.65
0.025 0.1 0.65
0.05 0.1 0.65
0.075 0.1 0.65
0.1 0.1 0.65
0 0 0.675
0.025 0 0.675
0.05 0 0.675
0.075 0 0.675
0.1 0 0.675
[...]
<PointData Vectors="Displacement">
<DataArray type="Float32" Name="Displacement" NumberOfComponents="3" format="ascii">
0 0 0
0 0 0
0 0 0
0 0 0
0 0 0
0 0 0
0 0 0
0 0 0
0 0 0
0 0 0
0 0 0
0 0 0
0 0 0
0 0 0
0 0 0
0 0 0
0 0 0
0 0 0
0 0 0
0 0 0
0 0 0
0 0 0
0 0 0
0 0 0
0 0 0
1.17952e-09 0.00175866 -3.03412e-09
1.74646e-09 0.00175866 -3.09284e-09
2.10209e-09 0.00175866 -3.09374e-09
2.42583e-09 0.00175866 -3.10303e-09
3.0126e-09 0.00175866 -3.07448e-09
1.16847e-09 0.00175867 -3.08212e-09
1.75476e-09 0.00175866 -3.07766e-09
2.10774e-09 0.00175866 -3.10721e-09
2.44717e-09 0.00175866 -3.06652e-09
3.04619e-09 0.00175866 -3.09092e-09
1.17311e-09 0.00175867 -3.08008e-09
1.75578e-09 0.00175867 -3.08709e-09
2.10361e-09 0.00175867 -3.09858e-09
2.45803e-09 0.00175867 -3.09746e-09
3.05336e-09 0.00175867 -3.08291e-09
1.23457e-09 0.00175867 -3.05698e-09
1.76642e-09 0.00175867 -3.08446e-09
2.10593e-09 0.00175867 -3.06772e-09
2.4309e-09 0.00175867 -3.09065e-09
2.99974e-09 0.00175867 -3.09543e-09
1.26311e-09 0.00175867 -3.06686e-09
1.77789e-09 0.00175867 -3.01282e-09
2.10488e-09 0.00175867 -3.07981e-09
2.43077e-09 0.00175867 -3.04596e-09
2.96466e-09 0.00175867 -3.06066e-09
3.127e-09 0.00351904 -6.17768e-09
3.59015e-09 0.00351904 -6.18401e-09
4.11521e-09 0.00351904 -6.19634e-09
4.65836e-09 0.00351904 -6.21941e-09
5.19519e-09 0.00351904 -6.28016e-09
2.97138e-09 0.00351904 -6.19451e-09
3.61632e-09 0.00351904 -6.2374e-09
4.13582e-09 0.00351904 -6.17047e-09
4.65597e-09 0.00351904 -6.19855e-09
5.23143e-09 0.00351904 -6.22694e-09
2.98769e-09 0.00351904 -6.19452e-09
3.62928e-09 0.00351904 -6.20748e-09
4.14396e-09 0.00351904 -6.2383e-09
4.6338e-09 0.00351904 -6.19191e-09
5.29497e-09 0.00351904 -6.19646e-09
3.11727e-09 0.00351904 -6.21537e-09
3.60682e-09 0.00351904 -6.18987e-09
4.13677e-09 0.00351904 -6.22195e-09
4.62305e-09 0.00351904 -6.21604e-09
5.22783e-09 0.00351904 -6.23295e-09
3.14651e-09 0.00351904 -6.18017e-09
3.65293e-09 0.00351904 -6.23766e-09
4.10966e-09 0.00351904 -6.2205e-09
4.6215e-09 0.00351904 -6.21327e-09
5.10423e-09 0.00351904 -6.22846e-09
4.84993e-09 0.00528195 -9.06449e-09
5.52239e-09 0.00528195 -9.10799e-09
6.05738e-09 0.00528195 -9.06195e-09
6.41052e-09 0.00528195 -9.05866e-09
7.13615e-09 0.00528195 -9.08326e-09
4.91071e-09 0.00528195 -9.11391e-09
5.4784e-09 0.00528195 -9.11156e-09
6.06745e-09 0.00528195 -9.13398e-09
6.47563e-09 0.00528195 -9.11079e-09
7.13445e-09 0.00528195 -9.12939e-09
4.92298e-09 0.00528195 -9.15015e-09
5.49761e-09 0.00528195 -9.11669e-09
6.00589e-09 0.00528195 -9.12881e-09
6.56298e-09 0.00528195 -9.19877e-09
7.12209e-09 0.00528195 -9.15676e-09
5.02389e-09 0.00528195 -9.19132e-09
5.50546e-09 0.00528195 -9.21891e-09
5.99064e-09 0.00528195 -9.18168e-09
6.53354e-09 0.00528195 -9.18626e-09
7.12627e-09 0.00528195 -9.17968e-09
4.9836e-09 0.00528195 -9.22787e-09
5.48992e-09 0.00528195 -9.15677e-09
6.03466e-09 0.00528195 -9.14992e-09
6.56226e-09 0.00528195 -9.21988e-09
7.10714e-09 0.00528195 -9.16061e-09
6.81188e-09 0.00704667 -1.16499e-08
7.18402e-09 0.00704667 -1.16336e-08
7.72526e-09 0.00704667 -1.1734e-08
8.14011e-09 0.00704667 -1.17577e-08
8.65463e-09 0.00704667 -1.16608e-08
6.6672e-09 0.00704667 -1.16769e-08
7.22028e-09 0.00704667 -1.17116e-08
7.69906e-09 0.00704667 -1.17311e-08
8.17354e-09 0.00704667 -1.17324e-08
8.70204e-09 0.00704667 -1.17424e-08
6.67396e-09 0.00704667 -1.17472e-08
7.22787e-09 0.00704667 -1.18047e-08
7.75151e-09 0.00704667 -1.17899e-08
8.19051e-09 0.00704667 -1.18106e-08
8.75883e-09 0.00704667 -1.17976e-08
6.69051e-09 0.00704667 -1.1832e-08
7.2281e-09 0.00704667 -1.18864e-08
7.74435e-09 0.00704667 -1.19067e-08
8.17996e-09 0.00704667 -1.18072e-08
8.76206e-09 0.00704667 -1.1811e-08
6.74679e-09 0.00704667 -1.18869e-08
7.27704e-09 0.00704667 -1.18675e-08
7.70585e-09 0.00704667 -1.17926e-08
8.16596e-09 0.00704667 -1.1769e-08
8.69002e-09 0.00704667 -1.19258e-08
8.26841e-09 0.00881067 -1.38215e-08
8.77164e-09 0.00881067 -1.38515e-08
9.14734e-09 0.00881067 -1.39331e-08
9.48569e-09 0.00881067 -1.39191e-08
1.00253e-08 0.00881067 -1.38727e-08
8.31637e-09 0.00881067 -1.38859e-08
8.72565e-09 0.00881067 -1.38679e-08
9.15254e-09 0.00881067 -1.39911e-08
9.53366e-09 0.00881067 -1.38883e-08
1.01021e-08 0.00881067 -1.38816e-08
8.29604e-09 0.00881067 -1.39686e-08
8.6785e-09 0.00881067 -1.39557e-08
9.2333e-09 0.00881067 -1.39694e-08
9.5918e-09 0.00881067 -1.39223e-08
1.00307e-08 0.00881067 -1.38416e-08
8.23513e-09 0.00881067 -1.39504e-08
8.76321e-09 0.00881067 -1.39802e-08
9.22866e-09 0.00881067 -1.39625e-08
9.58326e-09 0.00881067 -1.40362e-08
1.0085e-08 0.00881067 -1.39795e-08
8.39136e-09 0.00881067 -1.40015e-08
8.76831e-09 0.00881067 -1.40692e-08
9.25492e-09 0.00881067 -1.40971e-08
9.54634e-09 0.00881067 -1.40637e-08
9.99865e-09 0.00881067 -1.38895e-08
9.84562e-09 0.0105698 -1.55165e-08
9.85562e-09 0.0105698 -1.56468e-08
1.03002e-08 0.0105698 -1.56072e-08
1.05561e-08 0.0105698 -1.55929e-08
1.1334e-08 0.0105698 -1.55378e-08
9.71392e-09 0.0105698 -1.55251e-08
9.94435e-09 0.0105698 -1.5612e-08
1.03554e-08 0.0105698 -1.55811e-08
1.07293e-08 0.0105698 -1.5614e-08
1.09565e-08 0.0105698 -1.54673e-08
9.59485e-09 0.0105698 -1.55724e-08
1.00527e-08 0.0105698 -1.5587e-08
1.03555e-08 0.0105698 -1.56822e-08
1.07366e-08 0.0105698 -1.56158e-08
1.09678e-08 0.0105698 -1.56078e-08
9.54809e-09 0.0105698 -1.56278e-08
9.98088e-09 0.0105698 -1.56817e-08
1.0418e-08 0.0105698 -1.56749e-08
1.06758e-08 0.0105698 -1.56772e-08
1.1013e-08 0.0105698 -1.56581e-08
9.73105e-09 0.0105698 -1.56728e-08
9.99094e-09 0.0105698 -1.58135e-08
1.03452e-08 0.0105698 -1.56809e-08
1.05872e-08 0.0105698 -1.57994e-08
1.11103e-08 0.0105698 -1.58063e-08
1.05038e-08 0.0123189 -1.66216e-08
1.09481e-08 0.0123189 -1.64626e-08
1.12664e-08 0.0123189 -1.65088e-08
1.14626e-08 0.0123189 -1.66536e-08
1.16855e-08 0.0123189 -1.65673e-08
1.05773e-08 0.0123189 -1.65632e-08
1.09793e-08 0.0123189 -1.66637e-08
1.12534e-08 0.0123189 -1.66241e-08
1.15303e-08 0.0123189 -1.66424e-08
1.14794e-08 0.0123189 -1.67512e-08
1.0737e-08 0.0123189 -1.66457e-08
1.09984e-08 0.0123189 -1.66839e-08
1.12671e-08 0.0123189 -1.67164e-08
1.15036e-08 0.0123189 -1.66394e-08
1.1587e-08 0.0123189 -1.68397e-08
1.09077e-08 0.0123189 -1.67524e-08
1.10337e-08 0.0123189 -1.68674e-08
1.12235e-08 0.0123189 -1.68034e-08
1.14786e-08 0.0123189 -1.67811e-08
1.16288e-08 0.0123189 -1.6833e-08
1.07099e-08 0.0123189 -1.67901e-08
1.11112e-08 0.0123189 -1.67271e-08
1.13069e-08 0.0123189 -1.68549e-08
1.14381e-08 0.0123189 -1.68221e-08
1.18136e-08 0.0123189 -1.67939e-08
1.18158e-08 0.0140526 -1.69382e-08
1.16516e-08 0.0140526 -1.71649e-08
1.18018e-08 0.0140526 -1.71964e-08
1.18472e-08 0.0140526 -1.7146e-08
1.21678e-08 0.0140526 -1.73082e-08
1.15573e-08 0.0140526 -1.70038e-08
1.17615e-08 0.0140526 -1.69895e-08
1.19001e-08 0.0140526 -1.71715e-08
1.1811e-08 0.0140526 -1.71957e-08
1.22163e-08 0.0140526 -1.72316e-08
1.1487e-08 0.0140526 -1.71565e-08
1.1729e-08 0.0140526 -1.72638e-08
1.2057e-08 0.0140526 -1.72678e-08
1.18337e-08 0.0140526 -1.73364e-08
1.22095e-08 0.0140526 -1.72948e-08
1.15884e-08 0.0140526 -1.72157e-08
1.17341e-08 0.0140526 -1.72155e-08
1.18704e-08 0.0140526 -1.72955e-08
1.18555e-08 0.0140526 -1.72289e-08
1.20234e-08 0.0140526 -1.72794e-08
1.20179e-08 0.0140526 -1.74073e-08
1.16066e-08 0.0140526 -1.7296e-08
1.18004e-08 0.0140526 -1.74222e-08
1.20184e-08 0.0140526 -1.72442e-08
1.20159e-08 0.0140526 -1.72185e-08
1.25158e-08 0.0157667 -1.68939e-08
1.22663e-08 0.0157667 -1.74717e-08
1.23155e-08 0.0157667 -1.72758e-08
1.20123e-08 0.0157667 -1.73743e-08
1.23095e-08 0.0157667 -1.76277e-08
1.24114e-08 0.0157667 -1.72515e-08
1.2141e-08 0.0157667 -1.72855e-08
1.21546e-08 0.0157667 -1.74534e-08
1.2202e-08 0.0157667 -1.75346e-08
1.20817e-08 0.0157667 -1.73932e-08
1.2121e-08 0.0157667 -1.7358e-08
1.22012e-08 0.0157667 -1.7256e-08
1.22644e-08 0.0157667 -1.7299e-08
1.22002e-08 0.0157667 -1.73496e-08
1.19972e-08 0.0157667 -1.71834e-08
1.22371e-08 0.0157667 -1.74728e-08
1.22087e-08 0.0157667 -1.72453e-08
1.22674e-08 0.0157667 -1.72694e-08
1.21939e-08 0.0157667 -1.72155e-08
1.20733e-08 0.0157667 -1.72142e-08
1.21462e-08 0.0157667 -1.73559e-08
1.22835e-08 0.0157667 -1.74386e-08
1.22739e-08 0.0157667 -1.71741e-08
1.22236e-08 0.0157667 -1.71916e-08
1.18758e-08 0.0157667 -1.72516e-08
1.24789e-08 0.017458 -1.67007e-08
1.22624e-08 0.017458 -1.67403e-08
1.23491e-08 0.017458 -1.73457e-08
1.2203e-08 0.017458 -1.71951e-08
1.27259e-08 0.017458 -1.6838e-08
1.24101e-08 0.017458 -1.6884e-08
1.23894e-08 0.017458 -1.69469e-08
1.23992e-08 0.017458 -1.69963e-08
1.22625e-08 0.0174579 -1.69923e-08
1.24363e-08 0.0174579 -1.70058e-08
1.22386e-08 0.0174579 -1.69463e-08
1.24343e-08 0.017458 -1.68612e-08
1.23844e-08 0.0174579 -1.68568e-08
1.22453e-08 0.0174579 -1.67359e-08
1.2439e-08 0.0174579 -1.70429e-08
1.25586e-08 0.017458 -1.69692e-08
1.24305e-08 0.0174579 -1.70381e-08
1.25185e-08 0.0174579 -1.67966e-08
1.22287e-08 0.0174579 -1.6965e-08
1.20758e-08 0.0174579 -1.68184e-08
1.26124e-08 0.0174579 -1.6921e-08
1.25795e-08 0.0174579 -1.69088e-08
1.25721e-08 0.0174579 -1.68899e-08
1.20192e-08 0.0174579 -1.67721e-08
1.21453e-08 0.0174579 -1.68376e-08
1.29879e-08 0.0191252 -1.58982e-08
1.23471e-08 0.0191252 -1.58968e-08
1.26044e-08 0.0191252 -1.61394e-08
1.22055e-08 0.0191252 -1.58409e-08
1.2248e-08 0.0191252 -1.56178e-08
1.27335e-08 0.0191252 -1.5869e-08
1.2441e-08 0.0191252 -1.60374e-08
1.22577e-08 0.0191252 -1.60427e-08
1.23395e-08 0.0191252 -1.59872e-08
1.22853e-08 0.0191252 -1.58717e-08
1.24473e-08 0.0191252 -1.59685e-08
1.26828e-08 0.0191252 -1.59635e-08
1.2374e-08 0.0191252 -1.59416e-08
1.20599e-08 0.0191252 -1.60408e-08
1.25036e-08 0.0191252 -1.58055e-08
1.24001e-08 0.0191252 -1.60478e-08
1.26849e-08 0.0191252 -1.5956e-08
1.24626e-08 0.0191252 -1.60184e-08
1.21673e-08 0.0191252 -1.58801e-08
1.18638e-08 0.0191252 -1.58686e-08
1.28005e-08 0.0191252 -1.61122e-08
1.26599e-08 0.0191252 -1.61512e-08
1.25974e-08 0.0191252 -1.59464e-08
1.26337e-08 0.0191252 -1.59036e-08
1.12971e-08 0.0191252 -1.59455e-08
1.31685e-08 0.0207684 -1.47771e-08
1.26451e-08 0.0207684 -1.44986e-08
1.20817e-08 0.0207684 -1.43633e-08
1.20074e-08 0.0207684 -1.46086e-08
1.16587e-08 0.0207684 -1.46587e-08
1.27566e-08 0.0207684 -1.45215e-08
1.252e-08 0.0207684 -1.45938e-08
1.22837e-08 0.0207684 -1.45087e-08
1.20371e-08 0.0207684 -1.46168e-08
1.2073e-08 0.0207684 -1.44802e-08
1.28167e-08 0.0207684 -1.46378e-08
1.25451e-08 0.0207684 -1.48279e-08
1.24141e-08 0.0207684 -1.48639e-08
1.1914e-08 0.0207684 -1.45788e-08
1.18581e-08 0.0207684 -1.45979e-08
1.28612e-08 0.0207684 -1.4755e-08
1.25022e-08 0.0207684 -1.46907e-08
1.25174e-08 0.0207684 -1.47228e-08
1.20048e-08 0.0207684 -1.48434e-08
1.16497e-08 0.0207684 -1.47953e-08
1.32054e-08 0.0207684 -1.48547e-08
1.25671e-08 0.0207684 -1.46712e-08
1.23621e-08 0.0207684 -1.47514e-08
1.19529e-08 0.0207684 -1.47616e-08
1.14172e-08 0.0207684 -1.48617e-08
1.28436e-08 0.0223878 -1.29955e-08
1.24535e-08 0.0223878 -1.314e-08
1.21514e-08 0.0223878 -1.29065e-08
1.18022e-08 0.0223878 -1.32061e-08
1.23675e-08 0.0223878 -1.32205e-08
1.27157e-08 0.0223878 -1.31881e-08
1.2424e-08 0.0223878 -1.32186e-08
1.20951e-08 0.0223878 -1.32336e-08
1.2028e-08 0.0223878 -1.30764e-08
1.17297e-08 0.0223878 -1.31564e-08
1.27288e-08 0.0223878 -1.31897e-08
1.23563e-08 0.0223878 -1.30373e-08
1.24456e-08 0.0223878 -1.31774e-08
1.20262e-08 0.0223878 -1.3266e-08
1.14854e-08 0.0223878 -1.32997e-08
1.22612e-08 0.0223878 -1.31466e-08
1.2642e-08 0.0223878 -1.32782e-08
1.2342e-08 0.0223878 -1.32911e-08
1.17595e-08 0.0223878 -1.33299e-08
1.15394e-08 0.0223878 -1.35237e-08
1.23776e-08 0.0223878 -1.31845e-08
1.24219e-08 0.0223878 -1.32476e-08
1.20311e-08 0.0223878 -1.27845e-08
1.20024e-08 0.0223878 -1.3202e-08
1.15326e-08 0.0223878 -1.35655e-08
1.28256e-08 0.0239827 -1.21795e-08
1.24477e-08 0.0239827 -1.19103e-08
1.21707e-08 0.0239827 -1.19054e-08
1.17689e-08 0.0239827 -1.19732e-08
1.15397e-08 0.0239827 -1.15727e-08
1.31725e-08 0.0239827 -1.18417e-08
1.24306e-08 0.0239827 -1.18439e-08
1.21686e-08 0.0239827 -1.18576e-08
1.17302e-08 0.0239827 -1.17977e-08
1.15014e-08 0.0239827 -1.20945e-08
1.22828e-08 0.0239827 -1.15919e-08
1.25267e-08 0.0239827 -1.17578e-08
1.22288e-08 0.0239827 -1.16221e-08
1.18122e-08 0.0239827 -1.21982e-08
1.13851e-08 0.0239827 -1.19161e-08
1.21486e-08 0.0239827 -1.16099e-08
1.23768e-08 0.0239827 -1.16234e-08
1.23799e-08 0.0239827 -1.18647e-08
1.18265e-08 0.0239827 -1.19426e-08
1.13891e-08 0.0239827 -1.20604e-08
1.21408e-08 0.0239827 -1.10365e-08
1.24276e-08 0.0239827 -1.18076e-08
1.22667e-08 0.0239827 -1.19618e-08
1.19067e-08 0.0239827 -1.18363e-08
1.17924e-08 0.0239827 -1.20905e-08
1.26846e-08 0.0255502 -1.10749e-08
1.27398e-08 0.0255502 -1.12006e-08
1.19753e-08 0.0255502 -1.11219e-08
1.19666e-08 0.0255502 -1.11312e-08
1.16467e-08 0.0255502 -1.07674e-08
1.29017e-08 0.0255502 -1.09404e-08
1.23424e-08 0.0255502 -1.08928e-08
1.22098e-08 0.0255502 -1.08732e-08
1.18341e-08 0.0255502 -1.09678e-08
1.16592e-08 0.0255502 -1.09884e-08
1.2615e-08 0.0255502 -1.07023e-08
1.25583e-08 0.0255502 -1.09359e-08
1.21598e-08 0.0255502 -1.10341e-08
1.18242e-08 0.0255502 -1.08867e-08
1.14422e-08 0.0255502 -1.12323e-08
1.26825e-08 0.0255502 -1.062e-08
1.20949e-08 0.0255502 -1.05249e-08
1.21552e-08 0.0255502 -1.0837e-08
1.19441e-08 0.0255502 -1.11981e-08
1.17457e-08 0.0255502 -1.09206e-08
1.26928e-08 0.0255502 -1.06883e-08
1.1956e-08 0.0255502 -1.06756e-08
1.24527e-08 0.0255502 -1.07976e-08
1.1868e-08 0.0255502 -1.09583e-08
1.26927e-08 0.0255502 -1.05309e-08
1.24022e-08 0.027085 -1.00993e-08
1.24751e-08 0.027085 -1.03894e-08
1.20834e-08 0.027085 -1.0325e-08
1.19033e-08 0.027085 -1.04583e-08
1.26274e-08 0.027085 -9.9939e-09
1.22896e-08 0.027085 -1.04421e-08
1.26043e-08 0.027085 -1.03653e-08
1.22334e-08 0.027085 -1.0407e-08
1.2063e-08 0.027085 -1.03763e-08
1.167e-08 0.027085 -1.02253e-08
1.27128e-08 0.027085 -1.03186e-08
1.23623e-08 0.027085 -1.01018e-08
1.23077e-08 0.027085 -1.01383e-08
1.1847e-08 0.027085 -1.01268e-08
1.2097e-08 0.027085 -1.01329e-08
1.29169e-08 0.027085 -1.01863e-08
1.22283e-08 0.027085 -1.0202e-08
1.21452e-08 0.027085 -9.89382e-09
1.19211e-08 0.027085 -1.0128e-08
1.23706e-08 0.027085 -1.02491e-08
1.26704e-08 0.027085 -1.0127e-08
1.24484e-08 0.027085 -1.0265e-08
1.16426e-08 0.027085 -1.02833e-08
1.22155e-08 0.027085 -9.80625e-09
1.20161e-08 0.027085 -1.02551e-08
1.26267e-08 0.0285797 -9.44613e-09
1.24991e-08 0.0285797 -9.70122e-09
1.30395e-08 0.0285796 -9.55365e-09
1.19583e-08 0.0285796 -9.99775e-09
1.1573e-08 0.0285797 -9.78227e-09
1.2657e-08 0.0285797 -9.77045e-09
1.24888e-08 0.0285796 -9.9231e-09
1.2465e-08 0.0285796 -9.8142e-09
1.20343e-08 0.0285797 -9.67268e-09
1.23038e-08 0.0285796 -9.81025e-09
1.30406e-08 0.0285797 -9.9866e-09
1.26903e-08 0.0285796 -1.01466e-08
1.23265e-08 0.0285796 -9.935e-09
1.23559e-08 0.0285796 -9.62297e-09
1.22069e-08 0.0285797 -9.69605e-09
1.27932e-08 0.0285797 -9.93605e-09
1.25809e-08 0.0285797 -1.00993e-08
1.24625e-08 0.0285797 -9.99748e-09
1.23507e-08 0.0285796 -9.77136e-09
1.1829e-08 0.0285796 -9.72216e-09
1.32805e-08 0.0285797 -1.02774e-08
1.22212e-08 0.0285796 -1.02425e-08
1.27745e-08 0.0285796 -9.58706e-09
1.25372e-08 0.0285796 -1.00342e-08
1.19627e-08 0.0285796 -1.01117e-08
1.26716e-08 0.0300263 -1.01444e-08
1.31443e-08 0.0300263 -9.45821e-09
1.30146e-08 0.0300263 -9.83813e-09
1.26468e-08 0.0300263 -1.00836e-08
1.28507e-08 0.0300263 -1.00507e-08
1.30251e-08 0.0300263 -9.86814e-09
1.27842e-08 0.0300263 -1.00844e-08
1.3026e-08 0.0300263 -9.72621e-09
1.25736e-08 0.0300263 -9.89606e-09
1.28701e-08 0.0300263 -1.02212e-08
1.28525e-08 0.0300263 -9.89115e-09
1.27383e-08 0.0300263 -1.02354e-08
1.29151e-08 0.0300263 -1.02079e-08
1.30519e-08 0.0300263 -9.7444e-09
1.27551e-08 0.0300263 -9.90659e-09
1.3216e-08 0.0300263 -1.01592e-08
1.27445e-08 0.0300263 -1.00914e-08
1.29474e-08 0.0300263 -1.01815e-08
1.31098e-08 0.0300263 -1.02692e-08
1.31554e-08 0.0300263 -9.87067e-09
1.27872e-08 0.0300263 -9.89604e-09
1.28893e-08 0.0300263 -1.03124e-08
1.25468e-08 0.0300263 -9.64621e-09
1.28264e-08 0.0300263 -1.01944e-08
1.36228e-08 0.0300263 -1.00953e-08
1.2946e-08 0.0314193 -1.05692e-08
1.34583e-08 0.0314193 -1.04405e-08
1.33015e-08 0.0314193 -1.10823e-08
1.34773e-08 0.0314193 -1.07558e-08
1.37489e-08 0.0314193 -1.10343e-08
1.29484e-08 0.0314193 -1.02451e-08
1.34191e-08 0.0314193 -1.06533e-08
1.37149e-08 0.0314193 -1.07817e-08
1.35609e-08 0.0314193 -1.08012e-08
1.369e-08 0.0314193 -1.10244e-08
1.3215e-08 0.0314193 -1.0449e-08
1.33257e-08 0.0314193 -1.04093e-08
1.36515e-08 0.0314193 -1.05384e-08
1.37131e-08 0.0314193 -1.07951e-08
1.42398e-08 0.0314193 -1.09405e-08
1.32134e-08 0.0314193 -1.03388e-08
1.31831e-08 0.0314193 -1.03989e-08
1.36027e-08 0.0314193 -1.04185e-08
1.39403e-08 0.0314193 -1.05069e-08
1.42861e-08 0.0314193 -1.05543e-08
1.26278e-08 0.0314193 -9.9234e-09
1.32937e-08 0.0314193 -1.03134e-08
1.37941e-08 0.0314193 -1.08525e-08
1.384e-08 0.0314193 -1.06365e-08
1.4288e-08 0.0314193 -1.05449e-08
1.43716e-08 0.032757 -1.09954e-08
1.41442e-08 0.032757 -1.08522e-08
1.44073e-08 0.032757 -1.13208e-08
1.41532e-08 0.032757 -1.14487e-08
1.52737e-08 0.032757 -1.1967e-08
1.37687e-08 0.032757 -1.11856e-08
1.40409e-08 0.032757 -1.10936e-08
1.43176e-08 0.032757 -1.15358e-08
1.44005e-08 0.032757 -1.19659e-08
1.52625e-08 0.032757 -1.16854e-08
1.35453e-08 0.032757 -1.10098e-08
1.38499e-08 0.032757 -1.10239e-08
1.43744e-08 0.032757 -1.11999e-08
1.47738e-08 0.032757 -1.14443e-08
1.46895e-08 0.032757 -1.18022e-08
1.35614e-08 0.032757 -1.10146e-08
1.38983e-08 0.032757 -1.11009e-08
1.43578e-08 0.032757 -1.10373e-08
1.48107e-08 0.032757 -1.12254e-08
1.5317e-08 0.032757 -1.14864e-08
1.41385e-08 0.032757 -1.12833e-08
1.36807e-08 0.032757 -1.10335e-08
1.40523e-08 0.032757 -1.08693e-08
1.48318e-08 0.032757 -1.13554e-08
1.55866e-08 0.032757 -1.12319e-08
1.49489e-08 0.0340439 -1.21719e-08
1.48951e-08 0.0340439 -1.23869e-08
1.55718e-08 0.0340439 -1.23224e-08
1.527e-08 0.0340439 -1.29262e-08
1.61025e-08 0.0340439 -1.24185e-08
1.45484e-08 0.0340439 -1.23599e-08
1.49735e-08 0.0340439 -1.22031e-08
1.5229e-08 0.0340439 -1.25874e-08
1.54338e-08 0.0340439 -1.23542e-08
1.60888e-08 0.0340439 -1.23025e-08
1.43117e-08 0.0340439 -1.20947e-08
1.48064e-08 0.0340439 -1.21276e-08
1.52692e-08 0.0340439 -1.2259e-08
1.56312e-08 0.0340439 -1.23579e-08
1.67349e-08 0.0340439 -1.2739e-08
1.42671e-08 0.0340439 -1.20345e-08
1.47455e-08 0.0340439 -1.17013e-08
1.52438e-08 0.0340439 -1.18013e-08
1.56115e-08 0.0340439 -1.2342e-08
1.62163e-08 0.0340439 -1.22814e-08
1.46109e-08 0.0340439 -1.19174e-08
1.48016e-08 0.0340439 -1.22649e-08
1.52538e-08 0.0340439 -1.15506e-08
1.59005e-08 0.0340439 -1.17049e-08
1.62366e-08 0.0340439 -1.20389e-08
1.58408e-08 0.0352887 -1.38792e-08
1.61829e-08 0.0352887 -1.38494e-08
1.62866e-08 0.0352887 -1.41821e-08
1.65482e-08 0.0352887 -1.40482e-08
1.75211e-08 0.0352887 -1.37309e-08
1.56157e-08 0.0352887 -1.32868e-08
1.60342e-08 0.0352887 -1.35805e-08
1.63901e-08 0.0352887 -1.36574e-08
1.66107e-08 0.0352887 -1.34026e-08
1.70617e-08 0.0352887 -1.35009e-08
1.49615e-08 0.0352887 -1.33454e-08
1.59609e-08 0.0352887 -1.32261e-08
1.63208e-08 0.0352887 -1.30701e-08
1.64915e-08 0.0352887 -1.33785e-08
1.75805e-08 0.0352887 -1.31445e-08
1.57036e-08 0.0352887 -1.33844e-08
1.58542e-08 0.0352887 -1.31426e-08
1.60621e-08 0.0352887 -1.31513e-08
1.66284e-08 0.0352887 -1.32244e-08
1.77109e-08 0.0352887 -1.3185e-08
1.60528e-08 0.0352887 -1.31286e-08
1.55357e-08 0.0352887 -1.31774e-08
1.59842e-08 0.0352887 -1.30894e-08
1.67392e-08 0.0352887 -1.27333e-08
1.65523e-08 0.0352887 -1.30082e-08
1.63338e-08 0.0365015 -1.45613e-08
1.69271e-08 0.0365015 -1.49553e-08
1.74865e-08 0.0365015 -1.49673e-08
1.79894e-08 0.0365015 -1.50543e-08
1.83226e-08 0.0365015 -1.53003e-08
1.67378e-08 0.0365015 -1.45032e-08
1.69386e-08 0.0365015 -1.4468e-08
1.74776e-08 0.0365015 -1.44866e-08
1.76839e-08 0.0365015 -1.47775e-08
1.83045e-08 0.0365015 -1.44301e-08
1.64977e-08 0.0365015 -1.44312e-08
1.70226e-08 0.0365015 -1.42802e-08
1.74836e-08 0.0365015 -1.43076e-08
1.74487e-08 0.0365015 -1.43675e-08
1.84774e-08 0.0365015 -1.43916e-08