<?xml version="1.0"?>
<VTKFile type="UnstructuredGrid" version="0.1" byte_order="LittleEndian">
<UnstructuredGrid>
<Piece NumberOfPoints="1025" NumberOfCells="640">
<Points>
<DataArray type="Float32" NumberOfComponents="3" format="ascii">
0 0 0
0.025 0 0
0.05 0 0
0.075 0 0
0.1 0 0
0 0.025 0
0.025 0.025 0
0.05 0.025 0
0.075 0.025 0
0.1 0.025 0
0 0.05 0
0.025 0.05 0
0.05 0.05 0
0.075 0.05 0
0.1 0.05 0
0 0.075 0
0.025 0.075 0
0.05 0.075 0
0.075 0.075 0
0.1 0.075 0
0 0.1 0
0.025 0.1 0
0.05 0.1 0
0.075 0.1 0
0.1 0.1 0
0 0 0.025
0.025 0 0.025
0.05 0 0.025
0.075 0 0.025
0.1 0 0.025
0 0.025 0.025
0.025 0.025 0.025
0.05 0.025 0.025
0.075 0.025 0.025
0.1 0.025 0.025
0 0.05 0.025
0.025 0.05 0.025
0.05 0.05 0.025
0.075 0.05 0.025
0.1 0.05 0.025
0 0.075 0.025
0.025 0.075 0.025
0.05 0.075 0.025
0.075 0.075 0.025
0.1 0.075 0.025
0 0.1 0.025
0.025 0.1 0.025
0.05 0.1 0.025
0.075 0.1 0.025
0.1 0.1 0.025
0 0 0.05
0.025 0 0.05
0.05 0 0.05
0.075 0 0.05
0.1 0 0.05
0 0.025 0.05
0.025 0.025 0.05
0.05 0.025 0.05
0.075 0.025 0.05
0.1 0.025 0.05
0 0.05 0.05
0.025 0.05 0.05
0.05 0.05 0.05
0.075 0.05 0.05
0.1 0.05 0.05
0 0.075 0.05
0.025 0.075 0.05
0.05 0.075 0.05
0.075 0.075 0.05
0.1 0.075 0.05
0 0.1 0.05
0.025 0.1 0.05
0.05 0.1 0.05
0.075 0.1 0.05
0.1 0.1 0.05
0 0 0.075
0.025 0 0.075
0.05 0 0.075
0.075 0 0.075
0.1 0 0.075
0 0.025 0.075
0.025 0.025 0.075
0.05 0.025 0.075
0.075 0.025 0.075
0.1 0.025 0.075
0 0.05 0.075
0.025 0.05 0.075
0.05 0.05 0.075
0.075 0.05 0.075
0.1 0.05 0.075
0 0.075 0.075
0.025 0.075 0.075
0.05 0.075 0.075
0.075 0.075 0.075
0.1 0.075 0.075
0 0.1 0.075
0.025 0.1 0.075
0.05 0.1 0.075
0.075 0.1 0.075
0.1 0.1 0.075
0 0 0.1
0.025 0 0.1
0.05 0 0.1
0.075 0 0.1
0.1 0 0.1
0 0.025 0.1
0.025 0.025 0.1
0.05 0.025 0.1
0.075 0.025 0.1
0.1 0.025 0.1
0 0.05 0.1
0.025 0.05 0.1
0.05 0.05 0.1
0.075 0.05 0.1
0.1 0.05 0.1
0 0.075 0.1
0.025 0.075 0.1
0.05 0.075 0.1
0.075 0.075 0.1
0.1 0.075 0.1
0 0.1 0.1
0.025 0.1 0.1
0.05 0.1 0.1
0.075 0.1 0.1
0.1 0.1 0.1
0 0 0.125
0.025 0 0.125
0.05 0 0.125
0.075 0 0.125
0.1 0 0.125
0 0.025 0.125
0.025 0.025 0.125
0.05 0.025 0.125
0.075 0.025 0.125
0.1 0.025 0.125
0 0.05 0.125
0.025 0.05 0.125
0.05 0.05 0.125
0.075 0.05 0.125
0.1 0.05 0.125
0 0.075 0.125
0.025 0.075 0.125
0.05 0.075 0.125
0.075 0.075 0.125
0.1 0.075 0.125
0 0.1 0.125
0.025 0.1 0.125
0.05 0.1 0.125
0.075 0.1 0.125
0.1 0.1 0.125
0 0 0.15
0.025 0 0.15
0.05 0 0.15
0.075 0 0.15
0.1 0 0.15
0 0.025 0.15
0.025 0.025 0.15
0.05 0.025 0.15
0.075 0.025 0.15
0.1 0.025 0.15
0 0.05 0.15
0.025 0.05 0.15
0.05 0.05 0.15
0.075 0.05 0.15
0.1 0.05 0.15
0 0.075 0.15
0.025 0.075 0.15
0.05 0.075 0.15
0.075 0.075 0.15
0.1 0.075 0.15
0 0.1 0.15
0.025 0.1 0.15
0.05 0.1 0.15
0.075 0.1 0.15
0.1 0.1 0.15
0 0 0.175
0.025 0 0.175
0.05 0 0.175
0.075 0 0.175
0.1 0 0.175
0 0.025 0.175
0.025 0.025 0.175
0.05 0.025 0.175
0.075 0.025 0.175
0.1 0.025 0.175
0 0.05 0.175
0.025 0.05 0.175
0.05 0.05 0.175
0.075 0.05 0.175
0.1 0.05 0.175
0 0.075 0.175
0.025 0.075 0.175
0.05 0.075 0.175
0.075 0.075 0.175
0.1 0.075 0.175
0 0.1 0.175
0.025 0.1 0.175
0.05 0.1 0.175
0.075 0.1 0.175
0.1 0.1 0.175
0 0 0.2
0.025 0 0.2
0.05 0 0.2
0.075 0 0.2
0.1 0 0.2
0 0.025 0.2
0.025 0.025 0.2
0.05 0.025 0.2
0.075 0.025 0.2
0.1 0.025 0.2
0 0.05 0.2
0.025 0.05 0.2
0.05 0.05 0.2
0.075 0.05 0.2
0.1 0.05 0.2
0 0.075 0.2
0.025 0.075 0.2
0.05 0.075 0.2
0.075 0.075 0.2
0.1 0.075 0.2
0 0.1 0.2
0.025 0.1 0.2
0.05 0.1 0.2
0.075 0.1 0.2
0.1 0.1 0.2
0 0 0.225
0.025 0 0.225
0.05 0 0.225
0.075 0 0.225
0.1 0 0.225
0 0.025 0.225
0.025 0.025 0.225
0.05 0.025 0.225
0.075 0.025 0.225
0.1 0.025 0.225
0 0.05 0.225
0.025 0.05 0.225
0.05 0.05 0.225
0.075 0.05 0.225
0.1 0.05 0.225
0 0.075 0.225
0.025 0.075 0.225
0.05 0.075 0.225
0.075 0.075 0.225
0.1 0.075 0.225
0 0.1 0.225
0.025 0.1 0.225
0.05 0.1 0.225
0.075 0.1 0.225
0.1 0.1 0.225
0 0 0.25
0.025 0 0.25
0.05 0 0.25
0.075 0 0.25
0.1 0 0.25
0 0.025 0.25
0.025 0.025 0.25
0.05 0.025 0.25
0.075 0.025 0.25
0.1 0.025 0.25
0 0.05 0.25
0.025 0.05 0.25
0.05 0.05 0.25
0.075 0.05 0.25
0.1 0.05 0.25
0 0.075 0.25
0.025 0.075 0.25
0.05 0.075 0.25
0.075 0.075 0.25
0.1 0.075 0.25
0 0.1 0.25
0.025 0.1 0.25
0.05 0.1 0.25
0.075 0.1 0.25
0.1 0.1 0.25
0 0 0.275
0.025 0 0.275
0.05 0 0.275
0.075 0 0.275
0.1 0 0.275
0 0.025 0.275
0.025 0.025 0.275
0.05 0.025 0.275
0.075 0.025 0.275
0.1 0.025 0.275
0 0.05 0.275
0.025 0.05 0.275
0.05 0.05 0.275
0.075 0.05 0.275
0.1 0.05 0.275
0 0.075 0.275
0.025 0.075 0.275
0.05 0.075 0.275
0.075 0.075 0.275
0.1 0.075 0.275
0 0.1 0.275
0.025 0.1 0.275
0.05 0.1 0.275
0.075 0.1 0.275
0.1 0.1 0.275
0 0 0.3
0.025 0 0.3
0.05 0 0.3
0.075 0 0.3
0.1 0 0.3
0 0.025 0.3
0.025 0.025 0.3
0.05 0.025 0.3
0.075 0.025 0.3
0.1 0.025 0.3
0 0.05 0.3
0.025 0.05 0.3
0.05 0.05 0.3
0.075 0.05 0.3
0.1 0.05 0.3
0 0.075 0.3
0.025 0.075 0.3
0.05 0.075 0.3
0.075 0.075 0.3
0.1 0.075 0.3
0 0.1 0.3
0.025 0.1 0.3
0.05 0.1 0.3
0.075 0.1 0.3
0.1 0.1 0.3
0 0 0.325
0.025 0 0.325
0.05 0 0.325
0.075 0 0.325
0.1 0 0.325
0 0.025 0.325
0.025 0.025 0.325
0.05 0.025 0.325
0.075 0.025 0.325
0.1 0.025 0.325
0 0.05 0.325
0.025 0.05 0.325
0.05 0.05 0.325
0.075 0.05 0.325
0.1 0.05 0.325
0 0.075 0.325
0.025 0.075 0.325
0.05 0.075 0.325
0.075 0.075 0.325
0.1 0.075 0.325
0 0.1 0.325
0.025 0.1 0.325
0.05 0.1 0.325
0.075 0.1 0.325
0.1 0.1 0.325
0 0 0.35
0.025 0 0.35
0.05 0 0.35
0.075 0 0.35
0.1 0 0.35
0 0.025 0.35
0.025 0.025 0.35
0.05 0.025 0.35
0.075 0.025 0.35
0.1 0.025 0.35
0 0.05 0.35
0.025 0.05 0.35
0.05 0.05 0.35
0.075 0.05 0.35
0.1 0.05 0.35
0 0.075 0.35
0.025 0.075 0.35
0.05 0.075 0.35
0.075 0.075 0.35
0.1 0.075 0.35
0 0.1 0.35
0.025 0.1 0.35
0.05 0.1 0.35
0.075 0.1 0.35
0.1 0.1 0.35
0 0 0.375
0.025 0 0.375
0.05 0 0.375
0.075 0 0.375
0.1 0 0.375
0 0.025 0.375
0.025 0.025 0.375
0.05 0.025 0.375
0.075 0.025 0.375
0.1 0.025 0.375
0 0.05 0.375
0.025 0.05 0.375
0.05 0.05 0.375
0.075 0.05 0.375
0.1 0.05 0.375
0 0.075 0.375
0.025 0.075 0.375
0.05 0.075 0.375
0.075 0.075 0.375
0.1 0.075 0.375
0 0.1 0.375
0.025 0.1 0.375
0.05 0.1 0.375
0.075 0.1 0.375
0.1 0.1 0.375
0 0 0.4
0.025 0 0.4
0.05 0 0.4
0.075 0 0.4
0.1 0 0.4
0 0.025 0.4
0.025 0.025 0.4
0.05 0.025 0.4
0.075 0.025 0.4
0.1 0.025 0.4
0 0.05 0.4
0.025 0.05 0.4
0.05 0.05 0.4
0.075 0.05 0.4
0.1 0.05 0.4
0 0.075 0.4
0.025 0.075 0.4
0.05 0.075 0.4
0.075 0.075 0.4
0.1 0.075 0.4
0 0.1 0.4
0.025 0.1 0.4
0.05 0.1 0.4
0.075 0.1 0.4
0.1 0.1 0.4
0 0 0.425
0.025 0 0.425
0.05 0 0.425
0.075 0 0.425
0.1 0 0.425
0 0.025 0.425
0.025 0.025 0.425
0.05 0.025 0.425
0.075 0.025 0.425
0.1 0.025 0.425
0 0.05 0.425
0.025 0.05 0.425
0.05 0.05 0.425
0.075 0.05 0.425
0.1 0.05 0.425
0 0.075 0.425
0.025 0.075 0.425
0.05 0.075 0.425
0.075 0.075 0.425
0.1 0.075 0.425
0 0.1 0.425
0.025 0.1 0.425
0.05 0.1 0.425
0.075 0.1 0.425
0.1 0.1 0.425
0 0 0.45
0.025 0 0.45
0.05 0 0.45
0.075 0 0.45
0.1 0 0.45
0 0.025 0.45
0.025 0.025 0.45
0.05 0.025 0.45
0.075 0.025 0.45
0.1 0.025 0.45
0 0.05 0.45
0.025 0.05 0.45
0.05 0.05 0.45
0.075 0.05 0.45
0.1 0.05 0.45
0 0.075 0.45
0.025 0.075 0.45
0.05 0.075 0.45
0.075 0.075 0.45
0.1 0.075 0.45
0 0.1 0.45
0.025 0.1 0.45
0.05 0.1 0.45
0.075 0.1 0.45
0.1 0.1 0.45
0 0 0.475
0.025 0 0.475
0.05 0 0.475
0.075 0 0.475
0.1 0 0.475
0 0.025 0.475
0.025 0.025 0.475
0.05 0.025 0.475
0.075 0.025 0.475
0.1 0.025 0.475
0 0.05 0.475
0.025 0.05 0.475
0.05 0.05 0.475
0.075 0.05 0.475
0.1 0.05 0.475
0 0.075 0.475
0.025 0.075 0.475
0.05 0.075 0.475
0.075 0.075 0.475
0.1 0.075 0.475
0 0.1 0.475
0.025 0.1 0.475
0.05 0.1 0.475
0.075 0.1 0.475
0.1 0.1 0.475
0 0 0.5
0.025 0 0.5
0.05 0 0.5
0.075 0 0.5
0.1 0 0.5
0 0.025 0.5
0.025 0.025 0.5
0.05 0.025 0.5
0.075 0.025 0.5
0.1 0.025 0.5
0 0.05 0.5
0.025 0.05 0.5
0.05 0.05 0.5
0.075 0.05 0.5
0.1 0.05 0.5
0 0.075 0.5
0.025 0.075 0.5
0.05 0.075 0.5
0.075 0.075 0.5
0.1 0.075 0.5
0 0.1 0.5
0.025 0.1 0.5
0.05 0.1 0.5
0.075 0.1 0.5
0.1 0.1 0.5
0 0 0.525
0.025 0 0.525
0.05 0 0.525
0.075 0 0.525
0.1 0 0.525
0 0.025 0.525
0.025 0.025 0.525
0.05 0.025 0.525
0.075 0.025 0.525
0.1 0.025 0.525
0 0.05 0.525
0.025 0.05 0.525
0.05 0.05 0.525
0.075 0.05 0.525
0.1 0.05 0.525
0 0.075 0.525
0.025 0.075 0.525
0.05 0.075 0.525
0.075 0.075 0.525
0.1 0.075 0.525
0 0.1 0.525
0.025 0.1 0.525
0.05 0.1 0.525
0.075 0.1 0.525
0.1 0.1 0.525
0 0 0.55
0.025 0 0.55
0.05 0 0.55
0.075 0 0.55
0.1 0 0.55
0 0.025 0.55
0.025 0.025 0.55
0.05 0.025 0.55
0.075 0.025 0.55
0.1 0.025 0.55
0 0.05 0.55
0.025 0.05 0.55
0.05 0.05 0.55
0.075 0.05 0.55
0.1 0.05 0.55
0 0.075 0.55
0.025 0.075 0.55
0.05 0.075 0.55
0.075 0.075 0.55
0.1 0.075 0.55
0 0.1 0.55
0.025 0.1 0.55
0.05 0.1 0.55
0.075 0.1 0.55
0.1 0.1 0.55
0 0 0.575
0.025 0 0.575
0.05 0 0.575
0.075 0 0.575
0.1 0 0.575
0 0.025 0.575
0.025 0.025 0.575
0.05 0.025 0.575
0.075 0.025 0.575
0.1 0.025 0.575
0 0.05 0.575
0.025 0.05 0.575
0.05 0.05 0.575
0.075 0.05 0.575
0.1 0.05 0.575
0 0.075 0.575
0.025 0.075 0.575
0.05 0.075 0.575
0.075 0.075 0.575
0.1 0.075 0.575
0 0.1 0.575
0.025 0.1 0.575
0.05 0.1 0.575
0.075 0.1 0.575
0.1 0.1 0.575
0 0 0.6
0.025 0 0.6
0.05 0 0.6
0.075 0 0.6
0.1 0 0.6
0 0.025 0.6
0.025 0.025 0.6
0.05 0.025 0.6
0.075 0.025 0.6
0.1 0.025 0.6
0 0.05 0.6
0.025 0.05 0.6
0.05 0.05 0.6
0.075 0.05 0.6
0.1 0.05 0.6
0 0.075 0.6
0.025 0.075 0.6
0.05 0.075 0.6
0.075 0.075 0.6
0.1 0.075 0.6
0 0.1 0.6
0.025 0.1 0.6
0.05 0.1 0.6
0.075 0.1 0.6
0.1 0.1 0.6
0 0 0.625
0.025 0 0.625
0.05 0 0.625
0.075 0 0.625
0.1 0 0.625
0 0.025 0.625
0.025 0.025 0.625
0.05 0.025 0.625
0.075 0.025 0.625
0.1 0.025 0.625
0 0.05 0.625
0.025 0.05 0.625
0.05 0.05 0.625
0.075 0.05 0.625
0.1 0.05 0.625
0 0.075 0.625
0.025 0.075 0.625
0.05 0.075 0.625
0.075 0.075 0.625
0.1 0.075 0.625
0 0.1 0.625
0.025 0.1 0.625
0.05 0.1 0.625
0.075 0.1 0.625
0.1 0.1 0.625
0 0 0.65
0.025 0 0.65
0.05 0 0.65
0.075 0 0.65
0.1 0 0.65
0 0.025 0.65
0.025 0.025 0.65
0.05 0.025 0.65
0.075 0.025 0.65
0.1 0.025 0.65
0 0.05 0.65
0.025 0.05 0.65
0.05 0.05 0.65
0.075 0.05 0.65
0.1 0.05 0.65
0 0.075 0.65
0.025 0.075 0.65
0.05 0.075 0.65
0.075 0.075 0.65
0.1 0.075 0.65
0 0.1 0.65
0.025 0.1 0.65
0.05 0.1 0.65
0.075 0.1 0.65
0.1 0.1 0.65
0 0 0.675
0.025 0 0.675
0.05 0 0.675
0.075 0 0.675
0.1 0 0.675
[...]
<PointData Vectors="Displacement">
<DataArray type="Float32" Name="Displacement" NumberOfComponents="3" format="ascii">
0 0 0
0 0 0
0 0 0
0 0 0
0 0 0
0 0 0
0 0 0
0 0 0
0 0 0
0 0 0
0 0 0
0 0 0
0 0 0
0 0 0
0 0 0
0 0 0
0 0 0
0 0 0
0 0 0
0 0 0
0 0 0
0 0 0
0 0 0
0 0 0
0 0 0
4.26784e-10 0.00123681 2.85727e-10
3.713e-10 0.00123681 2.99486e-10
3.56014e-10 0.00123681 2.78608e-10
3.04049e-10 0.00123681 2.82107e-10
3.00576e-10 0.00123681 2.8594e-10
4.40687e-10 0.00123681 2.97395e-10
3.7994e-10 0.00123681 2.79602e-10
3.46028e-10 0.00123681 2.79743e-10
3.16462e-10 0.00123681 2.83769e-10
2.80521e-10 0.00123681 2.90771e-10
4.39697e-10 0.00123681 2.76967e-10
3.81823e-10 0.00123681 2.81392e-10
3.39278e-10 0.00123681 2.79541e-10
3.23764e-10 0.00123681 2.94686e-10
2.86037e-10 0.00123681 2.80705e-10
4.74003e-10 0.00123681 2.78823e-10
3.77645e-10 0.00123681 2.87613e-10
3.55321e-10 0.00123681 2.98503e-10
3.09257e-10 0.00123681 2.97738e-10
2.70435e-10 0.00123681 3.04637e-10
4.71104e-10 0.00123681 2.86519e-10
4.09651e-10 0.00123681 2.91807e-10
3.48212e-10 0.00123681 3.00408e-10
3.03241e-10 0.00123681 3.26569e-10
2.38796e-10 0.00123681 3.20782e-10
7.81614e-10 0.0024737 6.13803e-10
7.40986e-10 0.0024737 6.14026e-10
6.93706e-10 0.00247371 6.08718e-10
6.27855e-10 0.0024737 5.59108e-10
5.59424e-10 0.00247371 5.60936e-10
8.08717e-10 0.0024737 5.72721e-10
7.45492e-10 0.0024737 5.78303e-10
7.02259e-10 0.0024737 5.95978e-10
6.57023e-10 0.0024737 6.00689e-10
6.3362e-10 0.0024737 5.85392e-10
8.09322e-10 0.0024737 5.7073e-10
7.6573e-10 0.0024737 5.79993e-10
6.91284e-10 0.0024737 5.63737e-10
6.12313e-10 0.0024737 6.09762e-10
6.58313e-10 0.0024737 5.98552e-10
8.53967e-10 0.0024737 5.65574e-10
7.62479e-10 0.0024737 5.6544e-10
6.98904e-10 0.0024737 5.97334e-10
6.18102e-10 0.0024737 6.05715e-10
5.77393e-10 0.0024737 5.99096e-10
9.24004e-10 0.00247371 5.91704e-10
7.72601e-10 0.00247371 5.79248e-10
6.84605e-10 0.0024737 5.9483e-10
6.24277e-10 0.0024737 6.30455e-10
5.06873e-10 0.0024737 5.95196e-10
1.15299e-09 0.00371076 9.29892e-10
1.12684e-09 0.00371076 9.00371e-10
9.83659e-10 0.00371076 9.09144e-10
9.41542e-10 0.00371076 9.39878e-10
9.57064e-10 0.00371076 9.12142e-10
1.20747e-09 0.00371076 9.07793e-10
1.11473e-09 0.00371076 9.12428e-10
1.06111e-09 0.00371076 9.0272e-10
9.50077e-10 0.00371076 9.217e-10
9.17233e-10 0.00371076 9.03481e-10
1.21834e-09 0.00371076 9.05282e-10
1.1107e-09 0.00371076 9.01585e-10
1.04086e-09 0.00371076 9.46747e-10
9.74897e-10 0.00371076 9.17626e-10
9.44007e-10 0.00371076 9.03225e-10
1.25473e-09 0.00371076 8.69123e-10
1.12766e-09 0.00371076 8.71812e-10
1.03253e-09 0.00371076 9.18069e-10
9.43796e-10 0.00371076 8.99292e-10
8.85546e-10 0.00371076 9.60977e-10
1.3148e-09 0.00371076 8.23464e-10
1.12484e-09 0.00371076 8.73636e-10
1.0676e-09 0.00371076 8.48563e-10
9.4036e-10 0.00371076 9.63251e-10
8.8835e-10 0.00371076 8.65567e-10
1.54077e-09 0.00494806 1.25661e-09
1.47845e-09 0.00494806 1.24454e-09
1.40859e-09 0.00494806 1.19771e-09
1.27804e-09 0.00494806 1.16497e-09
1.31979e-09 0.00494806 1.21993e-09
1.50343e-09 0.00494806 1.26445e-09
1.45574e-09 0.00494806 1.24079e-09
1.39043e-09 0.00494806 1.23061e-09
1.27221e-09 0.00494806 1.25232e-09
1.27436e-09 0.00494806 1.23726e-09
1.52275e-09 0.00494806 1.20689e-09
1.47152e-09 0.00494806 1.24504e-09
1.41836e-09 0.00494806 1.24923e-09
1.26686e-09 0.00494806 1.28209e-09
1.3103e-09 0.00494806 1.25473e-09
1.60382e-09 0.00494806 1.15492e-09
1.46975e-09 0.00494806 1.20549e-09
1.37126e-09 0.00494806 1.20935e-09
1.2961e-09 0.00494806 1.27321e-09
1.23952e-09 0.00494806 1.2551e-09
1.52257e-09 0.00494806 1.20297e-09
1.49523e-09 0.00494806 1.19614e-09
1.39657e-09 0.00494806 1.18559e-09
1.30572e-09 0.00494806 1.21319e-09
1.14499e-09 0.00494806 1.25738e-09
1.88984e-09 0.00618569 1.59493e-09
1.73135e-09 0.00618569 1.60732e-09
1.62925e-09 0.00618569 1.51284e-09
1.64493e-09 0.00618569 1.55071e-09
1.63375e-09 0.00618569 1.55739e-09
1.84327e-09 0.00618569 1.64442e-09
1.76345e-09 0.00618569 1.66744e-09
1.74643e-09 0.00618569 1.56108e-09
1.6046e-09 0.00618569 1.62e-09
1.58447e-09 0.00618569 1.56048e-09
1.74067e-09 0.00618569 1.57283e-09
1.79775e-09 0.00618569 1.56803e-09
1.75337e-09 0.00618569 1.6206e-09
1.59452e-09 0.00618569 1.62747e-09
1.55932e-09 0.00618569 1.66513e-09
1.77643e-09 0.00618569 1.59237e-09
1.78795e-09 0.00618569 1.59015e-09
1.73242e-09 0.00618569 1.62232e-09
1.61134e-09 0.00618569 1.63627e-09
1.60351e-09 0.00618569 1.62385e-09
1.99546e-09 0.00618569 1.57237e-09
1.77431e-09 0.00618569 1.65534e-09
1.78306e-09 0.00618569 1.61636e-09
1.59235e-09 0.00618569 1.6268e-09
1.51559e-09 0.00618569 1.6948e-09
2.25892e-09 0.00742372 2.02631e-09
1.97232e-09 0.00742371 1.92875e-09
2.01726e-09 0.00742372 1.99367e-09
1.85915e-09 0.00742371 2.02904e-09
1.97505e-09 0.00742371 1.98208e-09
2.1386e-09 0.00742372 1.97147e-09
2.05854e-09 0.00742372 1.9354e-09
2.02473e-09 0.00742371 1.95347e-09
1.93948e-09 0.00742371 1.96054e-09
1.89438e-09 0.00742371 1.96092e-09
2.04952e-09 0.00742372 2.00518e-09
2.0888e-09 0.00742372 2.02213e-09
2.05074e-09 0.00742371 1.96135e-09
1.94012e-09 0.00742371 1.93966e-09
1.80182e-09 0.00742371 1.9985e-09
2.12997e-09 0.00742371 2.02361e-09
2.10575e-09 0.00742371 2.01017e-09
2.0595e-09 0.00742371 2.08899e-09
1.95137e-09 0.00742371 1.97356e-09
1.85775e-09 0.00742371 2.02273e-09
2.11594e-09 0.00742371 2.03321e-09
2.06621e-09 0.00742371 1.91899e-09
2.07816e-09 0.00742371 1.96707e-09
1.88167e-09 0.00742371 2.08288e-09
1.95113e-09 0.00742371 1.98003e-09
2.39668e-09 0.00866222 2.34173e-09
2.28673e-09 0.00866222 2.34372e-09
2.30652e-09 0.00866222 2.42368e-09
2.24268e-09 0.00866221 2.269e-09
2.03885e-09 0.00866221 2.27223e-09
2.40958e-09 0.00866222 2.42957e-09
2.31454e-09 0.00866222 2.3483e-09
2.29105e-09 0.00866222 2.37318e-09
2.21011e-09 0.00866221 2.36037e-09
2.13011e-09 0.00866221 2.37174e-09
2.40558e-09 0.00866222 2.52156e-09
2.36418e-09 0.00866222 2.44566e-09
2.27035e-09 0.00866221 2.44209e-09
2.25543e-09 0.00866221 2.42575e-09
2.10433e-09 0.00866221 2.33596e-09
2.42248e-09 0.00866222 2.46843e-09
2.41795e-09 0.00866222 2.4866e-09
2.34094e-09 0.00866221 2.36522e-09
2.18777e-09 0.00866221 2.38663e-09
2.16131e-09 0.00866221 2.38857e-09
2.32901e-09 0.00866222 2.47185e-09
2.43804e-09 0.00866221 2.43956e-09
2.37152e-09 0.00866221 2.5385e-09
2.23604e-09 0.00866221 2.39797e-09
1.96168e-09 0.00866221 2.32886e-09
2.84092e-09 0.00990126 2.65891e-09
2.5076e-09 0.00990126 2.81225e-09
2.50434e-09 0.00990126 2.6411e-09
2.36758e-09 0.00990126 2.81401e-09
2.38307e-09 0.00990126 2.79396e-09
2.61537e-09 0.00990126 2.8124e-09
2.68776e-09 0.00990126 2.85891e-09
2.55875e-09 0.00990126 2.82361e-09
2.30671e-09 0.00990126 2.81054e-09
2.52563e-09 0.00990126 2.76014e-09
2.72393e-09 0.00990126 2.85378e-09
2.57483e-09 0.00990126 2.89715e-09
2.58794e-09 0.00990126 2.76757e-09
2.33547e-09 0.00990126 2.7863e-09
2.46539e-09 0.00990126 2.77201e-09
2.7731e-09 0.00990126 2.97108e-09
2.62613e-09 0.00990126 2.90407e-09
2.54939e-09 0.00990126 2.8467e-09
2.39957e-09 0.00990126 2.87737e-09
2.38847e-09 0.00990126 2.71499e-09
3.03853e-09 0.00990126 2.92923e-09
2.46498e-09 0.00990126 2.9342e-09
2.51086e-09 0.00990126 2.80702e-09
2.31958e-09 0.00990126 2.89098e-09
2.46648e-09 0.00990126 2.86899e-09
2.84851e-09 0.0111409 3.10109e-09
2.94302e-09 0.0111409 2.93556e-09
2.75601e-09 0.0111409 3.11795e-09
2.5209e-09 0.0111409 2.9918e-09
2.47587e-09 0.0111409 3.07065e-09
3.08027e-09 0.0111409 3.07218e-09
2.82342e-09 0.0111409 3.07723e-09
2.70342e-09 0.0111409 2.98581e-09
2.57641e-09 0.0111409 3.02421e-09
2.49837e-09 0.0111409 3.1152e-09
3.03176e-09 0.0111409 3.16935e-09
2.84412e-09 0.0111409 3.1222e-09
2.70759e-09 0.0111409 3.07421e-09
2.58519e-09 0.0111409 3.05737e-09
2.42624e-09 0.0111409 3.2301e-09
2.95864e-09 0.0111409 3.0734e-09
2.81567e-09 0.0111409 3.1902e-09
2.7262e-09 0.0111409 3.20768e-09
2.63385e-09 0.0111409 3.18276e-09
2.48682e-09 0.0111409 3.19953e-09
2.9079e-09 0.0111409 3.12761e-09
2.925e-09 0.0111409 3.04548e-09
2.74488e-09 0.0111409 3.25157e-09
2.58343e-09 0.0111409 3.30401e-09
2.37294e-09 0.0111409 3.22216e-09
3.20034e-09 0.0123813 3.60596e-09
2.85855e-09 0.0123813 3.51971e-09
2.87928e-09 0.0123813 3.14705e-09
2.7683e-09 0.0123813 3.24466e-09
2.98546e-09 0.0123813 3.48474e-09
2.93988e-09 0.0123813 3.39198e-09
2.91018e-09 0.0123813 3.3533e-09
2.91188e-09 0.0123813 3.32177e-09
2.80251e-09 0.0123813 3.33599e-09
2.75664e-09 0.0123813 3.37106e-09
2.86111e-09 0.0123813 3.35479e-09
2.96716e-09 0.0123813 3.45442e-09
2.83093e-09 0.0123813 3.48919e-09
2.73094e-09 0.0123813 3.48306e-09
2.85142e-09 0.0123813 3.35839e-09
3.02273e-09 0.0123813 3.32529e-09
2.93216e-09 0.0123813 3.29087e-09
2.88991e-09 0.0123813 3.38331e-09
2.73919e-09 0.0123813 3.40142e-09
2.63709e-09 0.0123813 3.52115e-09
3.15028e-09 0.0123813 3.33879e-09
3.00004e-09 0.0123813 3.3659e-09
3.00496e-09 0.0123813 3.3801e-09
2.57083e-09 0.0123813 3.45036e-09
2.82921e-09 0.0123813 3.52881e-09
3.29555e-09 0.0136223 3.67173e-09
3.02171e-09 0.0136223 3.75458e-09
2.9264e-09 0.0136223 3.74088e-09
2.94923e-09 0.0136223 3.9897e-09
2.86503e-09 0.0136223 3.91223e-09
3.15142e-09 0.0136223 3.75151e-09
3.05146e-09 0.0136223 3.82058e-09
2.91587e-09 0.0136223 3.70168e-09
2.96534e-09 0.0136223 3.70898e-09
2.9327e-09 0.0136223 3.86165e-09
2.88774e-09 0.0136223 3.71661e-09
3.08492e-09 0.0136223 3.6953e-09
2.95456e-09 0.0136223 3.69823e-09
2.71736e-09 0.0136223 3.62372e-09
3.04152e-09 0.0136223 3.74571e-09
3.1245e-09 0.0136223 3.76788e-09
2.96859e-09 0.0136223 3.62565e-09
2.96248e-09 0.0136223 3.68661e-09
2.91204e-09 0.0136223 3.77966e-09
2.86873e-09 0.0136223 3.88248e-09
3.16167e-09 0.0136223 3.58765e-09
2.87472e-09 0.0136223 3.622e-09
2.91478e-09 0.0136223 3.50042e-09
3.13989e-09 0.0136223 3.67643e-09
2.37272e-09 0.0136223 3.71419e-09
3.23617e-09 0.0148642 3.97363e-09
3.27066e-09 0.0148642 4.11569e-09
3.06024e-09 0.0148642 4.16536e-09
2.89421e-09 0.0148642 3.9244e-09
2.74376e-09 0.0148642 4.05415e-09
3.29469e-09 0.0148642 4.21026e-09
3.04882e-09 0.0148642 4.03476e-09
2.93474e-09 0.0148642 4.05674e-09
2.87327e-09 0.0148642 4.14067e-09
2.94135e-09 0.0148642 4.11616e-09
3.37908e-09 0.0148642 4.04117e-09
3.02638e-09 0.0148642 4.01153e-09
2.98555e-09 0.0148642 3.92734e-09
2.89827e-09 0.0148642 4.07699e-09
2.89161e-09 0.0148642 4.13551e-09
3.1789e-09 0.0148642 3.93447e-09
3.00867e-09 0.0148642 4.04251e-09
3.08656e-09 0.0148642 4.07336e-09
2.88118e-09 0.0148642 3.9291e-09
2.7955e-09 0.0148642 3.98959e-09
3.37825e-09 0.0148642 3.95268e-09
3.03352e-09 0.0148642 3.96092e-09
2.98143e-09 0.0148642 3.97854e-09
2.88546e-09 0.0148642 3.98365e-09
2.78146e-09 0.0148642 3.90766e-09
3.04288e-09 0.0161069 4.2936e-09
3.07819e-09 0.0161069 4.25665e-09
2.8169e-09 0.0161069 4.43577e-09
2.76733e-09 0.0161069 4.09972e-09
3.17454e-09 0.0161069 4.13346e-09
3.21758e-09 0.0161069 4.33408e-09
2.9829e-09 0.0161069 4.36065e-09
2.93168e-09 0.0161069 4.13023e-09
2.9866e-09 0.0161069 4.41078e-09
2.81747e-09 0.0161069 4.52999e-09
3.01077e-09 0.0161069 4.22962e-09
2.95176e-09 0.0161069 4.33554e-09
3.17056e-09 0.0161069 4.42025e-09
2.97479e-09 0.0161069 4.31711e-09
2.55935e-09 0.0161069 4.41719e-09
2.93821e-09 0.0161069 4.34945e-09
3.14131e-09 0.0161069 4.33033e-09
3.09049e-09 0.0161069 4.45007e-09
2.91418e-09 0.0161069 4.46404e-09
2.95172e-09 0.0161069 4.28932e-09
3.27234e-09 0.0161069 4.39992e-09
3.09677e-09 0.0161069 4.4475e-09
3.04628e-09 0.0161069 4.50846e-09
3.00669e-09 0.0161069 4.35638e-09
3.11478e-09 0.0161069 4.40942e-09
3.30753e-09 0.0173505 4.55807e-09
2.90007e-09 0.0173505 4.42159e-09
2.85719e-09 0.0173505 4.39567e-09
2.90023e-09 0.0173505 4.44212e-09
2.51323e-09 0.0173505 4.79954e-09
3.11458e-09 0.0173505 4.5564e-09
2.88748e-09 0.0173505 4.55467e-09
2.84974e-09 0.0173505 4.60345e-09
2.81184e-09 0.0173505 4.6617e-09
2.80681e-09 0.0173505 4.65216e-09
2.77228e-09 0.0173505 4.67487e-09
2.98515e-09 0.0173505 4.72116e-09
2.99373e-09 0.0173505 4.66296e-09
2.90125e-09 0.0173505 4.59769e-09
2.78146e-09 0.0173505 4.73761e-09
2.70644e-09 0.0173505 4.73019e-09
3.03331e-09 0.0173505 4.74535e-09
3.13879e-09 0.0173505 4.7739e-09
2.79677e-09 0.0173505 4.71629e-09
2.65113e-09 0.0173505 4.73264e-09
2.75034e-09 0.0173505 5.0544e-09
3.20858e-09 0.0173505 4.68129e-09
3.00567e-09 0.0173505 4.72565e-09
2.82564e-09 0.0173505 4.90423e-09
2.74294e-09 0.0173505 4.95262e-09
2.8702e-09 0.018595 4.58062e-09
2.85419e-09 0.018595 4.45575e-09
2.5826e-09 0.018595 4.56366e-09
2.65273e-09 0.018595 4.59592e-09
2.78605e-09 0.018595 4.72247e-09
2.90681e-09 0.018595 4.61603e-09
2.71901e-09 0.018595 4.86765e-09
2.82619e-09 0.018595 4.75176e-09
2.65129e-09 0.018595 4.74149e-09
2.571e-09 0.018595 4.71126e-09
2.73707e-09 0.018595 4.97999e-09
2.74491e-09 0.018595 4.87513e-09
2.80007e-09 0.018595 5.02441e-09
2.67204e-09 0.018595 4.81402e-09
2.69692e-09 0.018595 4.72513e-09
3.04936e-09 0.018595 5.0246e-09
2.70946e-09 0.018595 5.21629e-09
2.73312e-09 0.018595 5.00259e-09
2.77593e-09 0.018595 5.03135e-09
2.86363e-09 0.018595 5.04601e-09
2.91862e-09 0.018595 4.95705e-09
2.54161e-09 0.018595 4.89396e-09
2.9468e-09 0.018595 5.21929e-09
2.65009e-09 0.018595 4.79139e-09
2.82973e-09 0.018595 5.32265e-09
2.18153e-09 0.0198405 4.50125e-09
2.49272e-09 0.0198405 5.09641e-09
2.4152e-09 0.0198405 4.68366e-09
2.47689e-09 0.0198405 4.57215e-09
2.47425e-09 0.0198405 4.80588e-09
2.28797e-09 0.0198405 4.80404e-09
2.62064e-09 0.0198405 4.64893e-09
2.62064e-09 0.0198405 4.90409e-09
2.37857e-09 0.0198405 4.69483e-09
2.57439e-09 0.0198405 4.91655e-09
2.49655e-09 0.0198405 5.11342e-09
2.49267e-09 0.0198405 5.11234e-09
2.60081e-09 0.0198405 5.15822e-09
2.47533e-09 0.0198405 5.04204e-09
2.50256e-09 0.0198405 5.10374e-09
2.66627e-09 0.0198405 5.01557e-09
2.41272e-09 0.0198405 5.13763e-09
2.65602e-09 0.0198405 5.3372e-09
2.46755e-09 0.0198405 5.23946e-09
2.70169e-09 0.0198405 5.06159e-09
2.55206e-09 0.0198405 5.06751e-09
2.70553e-09 0.0198405 5.00731e-09
2.40495e-09 0.0198405 5.22221e-09
2.78605e-09 0.0198405 5.29705e-09
2.2424e-09 0.0198405 5.28899e-09
2.50297e-09 0.021087 5.12799e-09
2.34225e-09 0.021087 5.1117e-09
2.51821e-09 0.021087 5.16366e-09
2.02326e-09 0.021087 5.10711e-09
2.00857e-09 0.021087 5.11546e-09
2.40491e-09 0.021087 5.00214e-09
2.31894e-09 0.021087 4.92673e-09
2.28713e-09 0.021087 5.15623e-09
2.18405e-09 0.021087 5.10589e-09
2.46076e-09 0.021087 5.06781e-09
2.36888e-09 0.021087 4.91962e-09
2.33927e-09 0.021087 4.88432e-09
2.36393e-09 0.021087 5.13528e-09
2.49474e-09 0.021087 5.20871e-09
2.24973e-09 0.021087 5.22191e-09
2.57549e-09 0.021087 4.99441e-09
2.39246e-09 0.021087 5.05631e-09
2.41614e-09 0.021087 5.03632e-09
2.41879e-09 0.021087 5.20131e-09
2.35786e-09 0.021087 5.37644e-09
2.59247e-09 0.021087 5.02014e-09
2.0847e-09 0.021087 5.07038e-09
2.69517e-09 0.021087 5.29504e-09
2.46482e-09 0.021087 5.48204e-09
2.65324e-09 0.021087 5.20616e-09
1.77148e-09 0.0223344 5.09027e-09
2.25428e-09 0.0223344 5.06265e-09
2.23508e-09 0.0223344 5.08415e-09
2.12274e-09 0.0223344 5.12033e-09
2.25666e-09 0.0223344 5.03437e-09
2.25691e-09 0.0223344 4.92653e-09
2.10091e-09 0.0223344 4.80322e-09
2.31186e-09 0.0223344 5.14071e-09
2.10815e-09 0.0223344 5.13279e-09
2.58272e-09 0.0223344 4.82961e-09
2.1456e-09 0.0223344 5.00851e-09
2.12605e-09 0.0223344 4.87934e-09
2.1837e-09 0.0223344 4.86123e-09
2.32811e-09 0.0223344 5.06746e-09
2.64874e-09 0.0223344 5.03672e-09
2.28274e-09 0.0223344 4.92999e-09
2.0159e-09 0.0223344 4.93876e-09
2.28926e-09 0.0223344 5.02553e-09
2.43968e-09 0.0223344 4.87187e-09
2.28669e-09 0.0223344 5.14196e-09
2.52494e-09 0.0223344 5.09252e-09
2.18102e-09 0.0223344 5.12143e-09
2.32737e-09 0.0223344 5.12524e-09
2.14115e-09 0.0223344 4.94486e-09
2.45073e-09 0.0223344 5.09683e-09
1.47468e-09 0.0235829 4.52534e-09
1.87661e-09 0.0235829 4.77459e-09
2.02369e-09 0.0235829 4.50135e-09
1.95801e-09 0.0235829 4.60907e-09
2.10728e-09 0.0235829 4.54951e-09
1.51222e-09 0.0235829 4.93449e-09
1.80376e-09 0.0235829 4.713e-09
2.14005e-09 0.0235829 4.67025e-09
2.08585e-09 0.0235829 4.7713e-09
2.25357e-09 0.0235829 4.67064e-09
1.8902e-09 0.0235829 4.71826e-09
1.92988e-09 0.0235829 4.75307e-09
2.05321e-09 0.0235829 4.70544e-09
2.15099e-09 0.0235829 4.65409e-09
2.50115e-09 0.0235829 4.5457e-09
1.87138e-09 0.0235829 4.72954e-09
1.94008e-09 0.0235829 4.69473e-09
2.10911e-09 0.0235829 4.81277e-09
2.21999e-09 0.0235829 4.76824e-09
2.51769e-09 0.0235829 4.81772e-09
1.72081e-09 0.0235829 4.58686e-09
1.83566e-09 0.0235829 4.61353e-09
2.02684e-09 0.0235829 4.65024e-09
2.33467e-09 0.0235829 4.6338e-09
2.72078e-09 0.0235829 4.72594e-09
1.07141e-09 0.0248325 5.0365e-09
1.65101e-09 0.0248325 4.44594e-09
2.11556e-09 0.0248325 4.53655e-09
1.67115e-09 0.0248325 4.67342e-09
1.66216e-09 0.0248325 4.49556e-09
1.28012e-09 0.0248325 4.43189e-09
1.73351e-09 0.0248325 4.59366e-09
1.7906e-09 0.0248325 4.37995e-09
1.79665e-09 0.0248325 4.47921e-09
2.1325e-09 0.0248325 4.55196e-09
1.44935e-09 0.0248325 4.50177e-09
1.66327e-09 0.0248325 4.6094e-09
1.87111e-09 0.0248325 4.60995e-09
1.89119e-09 0.0248325 4.52607e-09
2.23482e-09 0.0248325 4.30847e-09
1.66449e-09 0.0248325 4.60923e-09
1.5974e-09 0.0248325 4.45497e-09
1.79425e-09 0.0248325 4.61426e-09
1.90844e-09 0.0248325 4.65891e-09
2.33369e-09 0.0248325 4.63679e-09
1.48372e-09 0.0248325 4.18479e-09
1.56182e-09 0.0248325 4.5093e-09
1.78693e-09 0.0248325 4.34047e-09
2.04494e-09 0.0248325 4.69228e-09
2.48625e-09 0.0248325 4.60533e-09
5.18562e-10 0.026083 4.3033e-09
1.60195e-09 0.026083 4.50975e-09
1.72513e-09 0.026083 4.35861e-09
1.3075e-09 0.026083 3.95803e-09
2.20296e-09 0.026083 4.57103e-09
1.02588e-09 0.026083 4.31876e-09
1.3481e-09 0.026083 4.33422e-09
1.68884e-09 0.026083 4.1657e-09
1.61658e-09 0.026083 4.2671e-09
1.7353e-09 0.026083 4.18042e-09
9.35671e-10 0.026083 4.22954e-09
1.53723e-09 0.026083 4.40118e-09
1.57766e-09 0.026083 4.24787e-09
1.51407e-09 0.026083 4.28668e-09
2.23968e-09 0.026083 4.20038e-09
1.09589e-09 0.026083 4.45926e-09
1.30602e-09 0.026083 4.38906e-09
1.53804e-09 0.026083 4.41978e-09
1.58652e-09 0.026083 4.28701e-09
2.40394e-09 0.026083 4.47146e-09
1.4549e-09 0.026083 4.41992e-09
1.34302e-09 0.026083 4.26796e-09
1.76404e-09 0.026083 4.70293e-09
2.04688e-09 0.026083 4.66185e-09
1.51561e-09 0.026083 4.79028e-09
8.67715e-10 0.0273346 3.78936e-09
1.21336e-09 0.0273346 4.0347e-09
1.25694e-09 0.0273346 3.25229e-09
1.24629e-09 0.0273346 3.60063e-09
1.61003e-09 0.0273346 3.76011e-09
9.05541e-10 0.0273346 4.31577e-09
1.16874e-09 0.0273346 3.90172e-09
1.2786e-09 0.0273346 3.87273e-09
1.30582e-09 0.0273346 3.73163e-09
1.62313e-09 0.0273346 3.83521e-09
4.95326e-10 0.0273346 3.96444e-09
1.01116e-09 0.0273346 4.05437e-09
1.20739e-09 0.0273346 4.1264e-09
1.33468e-09 0.0273346 3.90374e-09
2.1495e-09 0.0273346 4.2114e-09
1.22772e-09 0.0273346 4.09205e-09
1.09108e-09 0.0273346 4.32935e-09
1.20777e-09 0.0273346 4.07839e-09
1.31328e-09 0.0273346 4.2882e-09
1.68203e-09 0.0273346 4.11339e-09
1.32079e-09 0.0273346 4.39227e-09
1.02427e-09 0.0273346 4.24321e-09
1.20065e-09 0.0273346 4.51871e-09
1.53337e-09 0.0273346 4.4444e-09
1.11846e-09 0.0273346 4.13872e-09
6.05144e-10 0.0285872 4.01289e-09
6.32227e-10 0.0285872 3.48422e-09
7.47311e-10 0.0285872 3.63019e-09
1.16036e-09 0.0285872 3.54787e-09
1.4227e-09 0.0285872 3.30479e-09
4.54283e-10 0.0285872 3.82615e-09
5.66362e-10 0.0285872 3.75137e-09
9.59523e-10 0.0285872 3.68569e-09
9.95662e-10 0.0285872 3.73309e-09
1.51236e-09 0.0285872 3.75823e-09
5.77465e-10 0.0285872 4.08297e-09
7.45693e-10 0.0285872 4.13906e-09
9.29571e-10 0.0285872 3.98481e-09
8.91096e-10 0.0285872 3.79095e-09
1.66091e-09 0.0285872 3.93098e-09
6.0636e-10 0.0285872 3.83194e-09
6.00567e-10 0.0285872 3.86863e-09
7.89079e-10 0.0285872 4.007e-09
8.82934e-10 0.0285872 3.87322e-09
1.46834e-09 0.0285872 3.98632e-09
8.25743e-10 0.0285872 3.72584e-09
6.13144e-10 0.0285872 3.90871e-09
1.05413e-09 0.0285872 3.82788e-09
9.23858e-10 0.0285872 4.14178e-09
1.16858e-09 0.0285872 4.23086e-09
3.78895e-10 0.0298408 3.47226e-09
8.41566e-12 0.0298408 3.65639e-09
8.22913e-10 0.0298408 3.50094e-09
9.31649e-10 0.0298408 3.42474e-09
5.8222e-10 0.0298408 3.34369e-09