<?xml version="1.0"?>
<VTKFile type="UnstructuredGrid" version="0.1" byte_order="LittleEndian">
<UnstructuredGrid>
<Piece NumberOfPoints="1025" NumberOfCells="640">
<Points>
<DataArray type="Float32" NumberOfComponents="3" format="ascii">
0 0 0
0.025 0 0
0.05 0 0
0.075 0 0
0.1 0 0
0 0.025 0
0.025 0.025 0
0.05 0.025 0
0.075 0.025 0
0.1 0.025 0
0 0.05 0
0.025 0.05 0
0.05 0.05 0
0.075 0.05 0
0.1 0.05 0
0 0.075 0
0.025 0.075 0
0.05 0.075 0
0.075 0.075 0
0.1 0.075 0
0 0.1 0
0.025 0.1 0
0.05 0.1 0
0.075 0.1 0
0.1 0.1 0
0 0 0.025
0.025 0 0.025
0.05 0 0.025
0.075 0 0.025
0.1 0 0.025
0 0.025 0.025
0.025 0.025 0.025
0.05 0.025 0.025
0.075 0.025 0.025
0.1 0.025 0.025
0 0.05 0.025
0.025 0.05 0.025
0.05 0.05 0.025
0.075 0.05 0.025
0.1 0.05 0.025
0 0.075 0.025
0.025 0.075 0.025
0.05 0.075 0.025
0.075 0.075 0.025
0.1 0.075 0.025
0 0.1 0.025
0.025 0.1 0.025
0.05 0.1 0.025
0.075 0.1 0.025
0.1 0.1 0.025
0 0 0.05
0.025 0 0.05
0.05 0 0.05
0.075 0 0.05
0.1 0 0.05
0 0.025 0.05
0.025 0.025 0.05
0.05 0.025 0.05
0.075 0.025 0.05
0.1 0.025 0.05
0 0.05 0.05
0.025 0.05 0.05
0.05 0.05 0.05
0.075 0.05 0.05
0.1 0.05 0.05
0 0.075 0.05
0.025 0.075 0.05
0.05 0.075 0.05
0.075 0.075 0.05
0.1 0.075 0.05
0 0.1 0.05
0.025 0.1 0.05
0.05 0.1 0.05
0.075 0.1 0.05
0.1 0.1 0.05
0 0 0.075
0.025 0 0.075
0.05 0 0.075
0.075 0 0.075
0.1 0 0.075
0 0.025 0.075
0.025 0.025 0.075
0.05 0.025 0.075
0.075 0.025 0.075
0.1 0.025 0.075
0 0.05 0.075
0.025 0.05 0.075
0.05 0.05 0.075
0.075 0.05 0.075
0.1 0.05 0.075
0 0.075 0.075
0.025 0.075 0.075
0.05 0.075 0.075
0.075 0.075 0.075
0.1 0.075 0.075
0 0.1 0.075
0.025 0.1 0.075
0.05 0.1 0.075
0.075 0.1 0.075
0.1 0.1 0.075
0 0 0.1
0.025 0 0.1
0.05 0 0.1
0.075 0 0.1
0.1 0 0.1
0 0.025 0.1
0.025 0.025 0.1
0.05 0.025 0.1
0.075 0.025 0.1
0.1 0.025 0.1
0 0.05 0.1
0.025 0.05 0.1
0.05 0.05 0.1
0.075 0.05 0.1
0.1 0.05 0.1
0 0.075 0.1
0.025 0.075 0.1
0.05 0.075 0.1
0.075 0.075 0.1
0.1 0.075 0.1
0 0.1 0.1
0.025 0.1 0.1
0.05 0.1 0.1
0.075 0.1 0.1
0.1 0.1 0.1
0 0 0.125
0.025 0 0.125
0.05 0 0.125
0.075 0 0.125
0.1 0 0.125
0 0.025 0.125
0.025 0.025 0.125
0.05 0.025 0.125
0.075 0.025 0.125
0.1 0.025 0.125
0 0.05 0.125
0.025 0.05 0.125
0.05 0.05 0.125
0.075 0.05 0.125
0.1 0.05 0.125
0 0.075 0.125
0.025 0.075 0.125
0.05 0.075 0.125
0.075 0.075 0.125
0.1 0.075 0.125
0 0.1 0.125
0.025 0.1 0.125
0.05 0.1 0.125
0.075 0.1 0.125
0.1 0.1 0.125
0 0 0.15
0.025 0 0.15
0.05 0 0.15
0.075 0 0.15
0.1 0 0.15
0 0.025 0.15
0.025 0.025 0.15
0.05 0.025 0.15
0.075 0.025 0.15
0.1 0.025 0.15
0 0.05 0.15
0.025 0.05 0.15
0.05 0.05 0.15
0.075 0.05 0.15
0.1 0.05 0.15
0 0.075 0.15
0.025 0.075 0.15
0.05 0.075 0.15
0.075 0.075 0.15
0.1 0.075 0.15
0 0.1 0.15
0.025 0.1 0.15
0.05 0.1 0.15
0.075 0.1 0.15
0.1 0.1 0.15
0 0 0.175
0.025 0 0.175
0.05 0 0.175
0.075 0 0.175
0.1 0 0.175
0 0.025 0.175
0.025 0.025 0.175
0.05 0.025 0.175
0.075 0.025 0.175
0.1 0.025 0.175
0 0.05 0.175
0.025 0.05 0.175
0.05 0.05 0.175
0.075 0.05 0.175
0.1 0.05 0.175
0 0.075 0.175
0.025 0.075 0.175
0.05 0.075 0.175
0.075 0.075 0.175
0.1 0.075 0.175
0 0.1 0.175
0.025 0.1 0.175
0.05 0.1 0.175
0.075 0.1 0.175
0.1 0.1 0.175
0 0 0.2
0.025 0 0.2
0.05 0 0.2
0.075 0 0.2
0.1 0 0.2
0 0.025 0.2
0.025 0.025 0.2
0.05 0.025 0.2
0.075 0.025 0.2
0.1 0.025 0.2
0 0.05 0.2
0.025 0.05 0.2
0.05 0.05 0.2
0.075 0.05 0.2
0.1 0.05 0.2
0 0.075 0.2
0.025 0.075 0.2
0.05 0.075 0.2
0.075 0.075 0.2
0.1 0.075 0.2
0 0.1 0.2
0.025 0.1 0.2
0.05 0.1 0.2
0.075 0.1 0.2
0.1 0.1 0.2
0 0 0.225
0.025 0 0.225
0.05 0 0.225
0.075 0 0.225
0.1 0 0.225
0 0.025 0.225
0.025 0.025 0.225
0.05 0.025 0.225
0.075 0.025 0.225
0.1 0.025 0.225
0 0.05 0.225
0.025 0.05 0.225
0.05 0.05 0.225
0.075 0.05 0.225
0.1 0.05 0.225
0 0.075 0.225
0.025 0.075 0.225
0.05 0.075 0.225
0.075 0.075 0.225
0.1 0.075 0.225
0 0.1 0.225
0.025 0.1 0.225
0.05 0.1 0.225
0.075 0.1 0.225
0.1 0.1 0.225
0 0 0.25
0.025 0 0.25
0.05 0 0.25
0.075 0 0.25
0.1 0 0.25
0 0.025 0.25
0.025 0.025 0.25
0.05 0.025 0.25
0.075 0.025 0.25
0.1 0.025 0.25
0 0.05 0.25
0.025 0.05 0.25
0.05 0.05 0.25
0.075 0.05 0.25
0.1 0.05 0.25
0 0.075 0.25
0.025 0.075 0.25
0.05 0.075 0.25
0.075 0.075 0.25
0.1 0.075 0.25
0 0.1 0.25
0.025 0.1 0.25
0.05 0.1 0.25
0.075 0.1 0.25
0.1 0.1 0.25
0 0 0.275
0.025 0 0.275
0.05 0 0.275
0.075 0 0.275
0.1 0 0.275
0 0.025 0.275
0.025 0.025 0.275
0.05 0.025 0.275
0.075 0.025 0.275
0.1 0.025 0.275
0 0.05 0.275
0.025 0.05 0.275
0.05 0.05 0.275
0.075 0.05 0.275
0.1 0.05 0.275
0 0.075 0.275
0.025 0.075 0.275
0.05 0.075 0.275
0.075 0.075 0.275
0.1 0.075 0.275
0 0.1 0.275
0.025 0.1 0.275
0.05 0.1 0.275
0.075 0.1 0.275
0.1 0.1 0.275
0 0 0.3
0.025 0 0.3
0.05 0 0.3
0.075 0 0.3
0.1 0 0.3
0 0.025 0.3
0.025 0.025 0.3
0.05 0.025 0.3
0.075 0.025 0.3
0.1 0.025 0.3
0 0.05 0.3
0.025 0.05 0.3
0.05 0.05 0.3
0.075 0.05 0.3
0.1 0.05 0.3
0 0.075 0.3
0.025 0.075 0.3
0.05 0.075 0.3
0.075 0.075 0.3
0.1 0.075 0.3
0 0.1 0.3
0.025 0.1 0.3
0.05 0.1 0.3
0.075 0.1 0.3
0.1 0.1 0.3
0 0 0.325
0.025 0 0.325
0.05 0 0.325
0.075 0 0.325
0.1 0 0.325
0 0.025 0.325
0.025 0.025 0.325
0.05 0.025 0.325
0.075 0.025 0.325
0.1 0.025 0.325
0 0.05 0.325
0.025 0.05 0.325
0.05 0.05 0.325
0.075 0.05 0.325
0.1 0.05 0.325
0 0.075 0.325
0.025 0.075 0.325
0.05 0.075 0.325
0.075 0.075 0.325
0.1 0.075 0.325
0 0.1 0.325
0.025 0.1 0.325
0.05 0.1 0.325
0.075 0.1 0.325
0.1 0.1 0.325
0 0 0.35
0.025 0 0.35
0.05 0 0.35
0.075 0 0.35
0.1 0 0.35
0 0.025 0.35
0.025 0.025 0.35
0.05 0.025 0.35
0.075 0.025 0.35
0.1 0.025 0.35
0 0.05 0.35
0.025 0.05 0.35
0.05 0.05 0.35
0.075 0.05 0.35
0.1 0.05 0.35
0 0.075 0.35
0.025 0.075 0.35
0.05 0.075 0.35
0.075 0.075 0.35
0.1 0.075 0.35
0 0.1 0.35
0.025 0.1 0.35
0.05 0.1 0.35
0.075 0.1 0.35
0.1 0.1 0.35
0 0 0.375
0.025 0 0.375
0.05 0 0.375
0.075 0 0.375
0.1 0 0.375
0 0.025 0.375
0.025 0.025 0.375
0.05 0.025 0.375
0.075 0.025 0.375
0.1 0.025 0.375
0 0.05 0.375
0.025 0.05 0.375
0.05 0.05 0.375
0.075 0.05 0.375
0.1 0.05 0.375
0 0.075 0.375
0.025 0.075 0.375
0.05 0.075 0.375
0.075 0.075 0.375
0.1 0.075 0.375
0 0.1 0.375
0.025 0.1 0.375
0.05 0.1 0.375
0.075 0.1 0.375
0.1 0.1 0.375
0 0 0.4
0.025 0 0.4
0.05 0 0.4
0.075 0 0.4
0.1 0 0.4
0 0.025 0.4
0.025 0.025 0.4
0.05 0.025 0.4
0.075 0.025 0.4
0.1 0.025 0.4
0 0.05 0.4
0.025 0.05 0.4
0.05 0.05 0.4
0.075 0.05 0.4
0.1 0.05 0.4
0 0.075 0.4
0.025 0.075 0.4
0.05 0.075 0.4
0.075 0.075 0.4
0.1 0.075 0.4
0 0.1 0.4
0.025 0.1 0.4
0.05 0.1 0.4
0.075 0.1 0.4
0.1 0.1 0.4
0 0 0.425
0.025 0 0.425
0.05 0 0.425
0.075 0 0.425
0.1 0 0.425
0 0.025 0.425
0.025 0.025 0.425
0.05 0.025 0.425
0.075 0.025 0.425
0.1 0.025 0.425
0 0.05 0.425
0.025 0.05 0.425
0.05 0.05 0.425
0.075 0.05 0.425
0.1 0.05 0.425
0 0.075 0.425
0.025 0.075 0.425
0.05 0.075 0.425
0.075 0.075 0.425
0.1 0.075 0.425
0 0.1 0.425
0.025 0.1 0.425
0.05 0.1 0.425
0.075 0.1 0.425
0.1 0.1 0.425
0 0 0.45
0.025 0 0.45
0.05 0 0.45
0.075 0 0.45
0.1 0 0.45
0 0.025 0.45
0.025 0.025 0.45
0.05 0.025 0.45
0.075 0.025 0.45
0.1 0.025 0.45
0 0.05 0.45
0.025 0.05 0.45
0.05 0.05 0.45
0.075 0.05 0.45
0.1 0.05 0.45
0 0.075 0.45
0.025 0.075 0.45
0.05 0.075 0.45
0.075 0.075 0.45
0.1 0.075 0.45
0 0.1 0.45
0.025 0.1 0.45
0.05 0.1 0.45
0.075 0.1 0.45
0.1 0.1 0.45
0 0 0.475
0.025 0 0.475
0.05 0 0.475
0.075 0 0.475
0.1 0 0.475
0 0.025 0.475
0.025 0.025 0.475
0.05 0.025 0.475
0.075 0.025 0.475
0.1 0.025 0.475
0 0.05 0.475
0.025 0.05 0.475
0.05 0.05 0.475
0.075 0.05 0.475
0.1 0.05 0.475
0 0.075 0.475
0.025 0.075 0.475
0.05 0.075 0.475
0.075 0.075 0.475
0.1 0.075 0.475
0 0.1 0.475
0.025 0.1 0.475
0.05 0.1 0.475
0.075 0.1 0.475
0.1 0.1 0.475
0 0 0.5
0.025 0 0.5
0.05 0 0.5
0.075 0 0.5
0.1 0 0.5
0 0.025 0.5
0.025 0.025 0.5
0.05 0.025 0.5
0.075 0.025 0.5
0.1 0.025 0.5
0 0.05 0.5
0.025 0.05 0.5
0.05 0.05 0.5
0.075 0.05 0.5
0.1 0.05 0.5
0 0.075 0.5
0.025 0.075 0.5
0.05 0.075 0.5
0.075 0.075 0.5
0.1 0.075 0.5
0 0.1 0.5
0.025 0.1 0.5
0.05 0.1 0.5
0.075 0.1 0.5
0.1 0.1 0.5
0 0 0.525
0.025 0 0.525
0.05 0 0.525
0.075 0 0.525
0.1 0 0.525
0 0.025 0.525
0.025 0.025 0.525
0.05 0.025 0.525
0.075 0.025 0.525
0.1 0.025 0.525
0 0.05 0.525
0.025 0.05 0.525
0.05 0.05 0.525
0.075 0.05 0.525
0.1 0.05 0.525
0 0.075 0.525
0.025 0.075 0.525
0.05 0.075 0.525
0.075 0.075 0.525
0.1 0.075 0.525
0 0.1 0.525
0.025 0.1 0.525
0.05 0.1 0.525
0.075 0.1 0.525
0.1 0.1 0.525
0 0 0.55
0.025 0 0.55
0.05 0 0.55
0.075 0 0.55
0.1 0 0.55
0 0.025 0.55
0.025 0.025 0.55
0.05 0.025 0.55
0.075 0.025 0.55
0.1 0.025 0.55
0 0.05 0.55
0.025 0.05 0.55
0.05 0.05 0.55
0.075 0.05 0.55
0.1 0.05 0.55
0 0.075 0.55
0.025 0.075 0.55
0.05 0.075 0.55
0.075 0.075 0.55
0.1 0.075 0.55
0 0.1 0.55
0.025 0.1 0.55
0.05 0.1 0.55
0.075 0.1 0.55
0.1 0.1 0.55
0 0 0.575
0.025 0 0.575
0.05 0 0.575
0.075 0 0.575
0.1 0 0.575
0 0.025 0.575
0.025 0.025 0.575
0.05 0.025 0.575
0.075 0.025 0.575
0.1 0.025 0.575
0 0.05 0.575
0.025 0.05 0.575
0.05 0.05 0.575
0.075 0.05 0.575
0.1 0.05 0.575
0 0.075 0.575
0.025 0.075 0.575
0.05 0.075 0.575
0.075 0.075 0.575
0.1 0.075 0.575
0 0.1 0.575
0.025 0.1 0.575
0.05 0.1 0.575
0.075 0.1 0.575
0.1 0.1 0.575
0 0 0.6
0.025 0 0.6
0.05 0 0.6
0.075 0 0.6
0.1 0 0.6
0 0.025 0.6
0.025 0.025 0.6
0.05 0.025 0.6
0.075 0.025 0.6
0.1 0.025 0.6
0 0.05 0.6
0.025 0.05 0.6
0.05 0.05 0.6
0.075 0.05 0.6
0.1 0.05 0.6
0 0.075 0.6
0.025 0.075 0.6
0.05 0.075 0.6
0.075 0.075 0.6
0.1 0.075 0.6
0 0.1 0.6
0.025 0.1 0.6
0.05 0.1 0.6
0.075 0.1 0.6
0.1 0.1 0.6
0 0 0.625
0.025 0 0.625
0.05 0 0.625
0.075 0 0.625
0.1 0 0.625
0 0.025 0.625
0.025 0.025 0.625
0.05 0.025 0.625
0.075 0.025 0.625
0.1 0.025 0.625
0 0.05 0.625
0.025 0.05 0.625
0.05 0.05 0.625
0.075 0.05 0.625
0.1 0.05 0.625
0 0.075 0.625
0.025 0.075 0.625
0.05 0.075 0.625
0.075 0.075 0.625
0.1 0.075 0.625
0 0.1 0.625
0.025 0.1 0.625
0.05 0.1 0.625
0.075 0.1 0.625
0.1 0.1 0.625
0 0 0.65
0.025 0 0.65
0.05 0 0.65
0.075 0 0.65
0.1 0 0.65
0 0.025 0.65
0.025 0.025 0.65
0.05 0.025 0.65
0.075 0.025 0.65
0.1 0.025 0.65
0 0.05 0.65
0.025 0.05 0.65
0.05 0.05 0.65
0.075 0.05 0.65
0.1 0.05 0.65
0 0.075 0.65
0.025 0.075 0.65
0.05 0.075 0.65
0.075 0.075 0.65
0.1 0.075 0.65
0 0.1 0.65
0.025 0.1 0.65
0.05 0.1 0.65
0.075 0.1 0.65
0.1 0.1 0.65
0 0 0.675
0.025 0 0.675
0.05 0 0.675
0.075 0 0.675
0.1 0 0.675
[...]
<PointData Vectors="Displacement">
<DataArray type="Float32" Name="Displacement" NumberOfComponents="3" format="ascii">
0 0 0
0 0 0
0 0 0
0 0 0
0 0 0
0 0 0
0 0 0
0 0 0
0 0 0
0 0 0
0 0 0
0 0 0
0 0 0
0 0 0
0 0 0
0 0 0
0 0 0
0 0 0
0 0 0
0 0 0
0 0 0
0 0 0
0 0 0
0 0 0
0 0 0
-1.71214e-09 0.000906536 -3.70423e-09
-1.01477e-09 0.000906536 -3.72791e-09
-5.26014e-10 0.000906536 -3.71821e-09
-2.26491e-10 0.000906536 -3.80156e-09
5.06439e-10 0.000906537 -3.7925e-09
-1.70613e-09 0.000906537 -3.76543e-09
-9.79929e-10 0.000906537 -3.73758e-09
-5.69998e-10 0.000906537 -3.72688e-09
-1.75533e-10 0.000906537 -3.72187e-09
5.91897e-10 0.000906537 -3.79337e-09
-1.66947e-09 0.000906537 -3.7574e-09
-1.00857e-09 0.000906538 -3.75991e-09
-5.66389e-10 0.000906537 -3.71115e-09
-1.09327e-10 0.000906537 -3.67315e-09
5.30298e-10 0.000906537 -3.72097e-09
-1.65682e-09 0.000906538 -3.74003e-09
-9.81241e-10 0.000906538 -3.73627e-09
-5.43637e-10 0.000906538 -3.69241e-09
-1.17928e-10 0.000906538 -3.72629e-09
4.87732e-10 0.000906538 -3.6793e-09
-1.60201e-09 0.000906538 -3.83718e-09
-1.00095e-09 0.000906539 -3.71736e-09
-5.96988e-10 0.000906538 -3.68365e-09
-1.33318e-10 0.000906539 -3.69861e-09
5.65181e-10 0.000906539 -3.75211e-09
-2.48618e-09 0.00178233 -7.47705e-09
-1.71215e-09 0.00178233 -7.55907e-09
-1.10428e-09 0.00178233 -7.45728e-09
-5.83372e-10 0.00178233 -7.52079e-09
7.46909e-11 0.00178233 -7.58133e-09
-2.50489e-09 0.00178233 -7.52918e-09
-1.71371e-09 0.00178233 -7.47248e-09
-1.18347e-09 0.00178233 -7.44653e-09
-5.1781e-10 0.00178233 -7.44575e-09
2.70089e-10 0.00178233 -7.49998e-09
-2.57492e-09 0.00178233 -7.49476e-09
-1.7086e-09 0.00178233 -7.47058e-09
-1.12074e-09 0.00178233 -7.53234e-09
-5.34206e-10 0.00178233 -7.43103e-09
1.41938e-10 0.00178233 -7.46214e-09
-2.36706e-09 0.00178233 -7.4378e-09
-1.79262e-09 0.00178233 -7.43564e-09
-1.10991e-09 0.00178233 -7.42617e-09
-4.54118e-10 0.00178233 -7.50969e-09
1.41371e-10 0.00178233 -7.43593e-09
-2.45972e-09 0.00178233 -7.40326e-09
-1.77925e-09 0.00178233 -7.3038e-09
-1.09767e-09 0.00178233 -7.432e-09
-5.1372e-10 0.00178234 -7.39027e-09
3.4641e-11 0.00178233 -7.45131e-09
-3.01667e-09 0.0025991 -1.10118e-08
-2.18153e-09 0.0025991 -1.08703e-08
-1.72947e-09 0.0025991 -1.09276e-08
-1.11684e-09 0.0025991 -1.0831e-08
-3.96363e-10 0.0025991 -1.09266e-08
-3.10272e-09 0.0025991 -1.09826e-08
-2.27567e-09 0.0025991 -1.09426e-08
-1.64775e-09 0.0025991 -1.08993e-08
-1.1279e-09 0.0025991 -1.09302e-08
-3.86875e-10 0.0025991 -1.08694e-08
-2.79681e-09 0.0025991 -1.08496e-08
-2.43745e-09 0.0025991 -1.09258e-08
-1.65851e-09 0.0025991 -1.0965e-08
-1.05479e-09 0.0025991 -1.09621e-08
-4.54385e-10 0.0025991 -1.09691e-08
-2.99838e-09 0.0025991 -1.07935e-08
-2.24448e-09 0.0025991 -1.0864e-08
-1.6901e-09 0.0025991 -1.07982e-08
-1.00275e-09 0.0025991 -1.08896e-08
-3.63675e-10 0.0025991 -1.08968e-08
-2.92495e-09 0.0025991 -1.0906e-08
-2.43075e-09 0.00259911 -1.07736e-08
-1.63712e-09 0.0025991 -1.07681e-08
-9.50384e-10 0.0025991 -1.0708e-08
-5.00293e-10 0.0025991 -1.07605e-08
-3.33872e-09 0.00333341 -1.39057e-08
-2.66056e-09 0.00333341 -1.36718e-08
-2.17836e-09 0.00333341 -1.37045e-08
-1.78874e-09 0.00333341 -1.37832e-08
-1.204e-09 0.00333341 -1.38159e-08
-3.40923e-09 0.0033334 -1.37643e-08
-2.73866e-09 0.00333341 -1.3793e-08
-2.2279e-09 0.00333341 -1.38557e-08
-1.78106e-09 0.00333341 -1.3867e-08
-1.27945e-09 0.00333341 -1.36545e-08
-3.20558e-09 0.00333341 -1.35763e-08
-2.74122e-09 0.00333341 -1.37904e-08
-2.28621e-09 0.00333341 -1.37715e-08
-1.73217e-09 0.00333341 -1.37969e-08
-1.23829e-09 0.00333341 -1.37629e-08
-3.0358e-09 0.00333341 -1.38228e-08
-2.76461e-09 0.00333341 -1.36499e-08
-2.23562e-09 0.00333341 -1.38056e-08
-1.69023e-09 0.00333341 -1.3712e-08
-1.03398e-09 0.00333341 -1.37756e-08
-3.44194e-09 0.00333341 -1.36935e-08
-2.78331e-09 0.00333341 -1.36846e-08
-2.18983e-09 0.00333341 -1.37376e-08
-1.42318e-09 0.00333341 -1.37128e-08
-1.27365e-09 0.00333341 -1.37551e-08
-3.49369e-09 0.00396889 -1.56369e-08
-2.93543e-09 0.00396888 -1.57844e-08
-2.64564e-09 0.00396888 -1.58912e-08
-2.65521e-09 0.00396888 -1.59457e-08
-2.46871e-09 0.00396888 -1.56835e-08
-3.61975e-09 0.00396888 -1.5713e-08
-3.06638e-09 0.00396888 -1.58172e-08
-2.7165e-09 0.00396888 -1.59164e-08
-2.35561e-09 0.00396888 -1.57877e-08
-1.87195e-09 0.00396888 -1.5894e-08
-3.34419e-09 0.00396888 -1.58192e-08
-3.10687e-09 0.00396888 -1.58304e-08
-2.79023e-09 0.00396888 -1.59335e-08
-2.42518e-09 0.00396888 -1.58705e-08
-2.20956e-09 0.00396888 -1.56879e-08
-3.37364e-09 0.00396888 -1.5765e-08
-3.11805e-09 0.00396888 -1.58443e-08
-2.81807e-09 0.00396888 -1.58431e-08
-2.28062e-09 0.00396888 -1.58876e-08
-2.23519e-09 0.00396888 -1.59768e-08
-3.24646e-09 0.00396888 -1.58165e-08
-3.37885e-09 0.00396889 -1.59638e-08
-2.87927e-09 0.00396888 -1.59165e-08
-2.32902e-09 0.00396888 -1.59304e-08
-1.84774e-09 0.00396888 -1.57116e-08
-3.68132e-09 0.00449822 -1.69628e-08
-3.31719e-09 0.00449822 -1.68874e-08
-3.10114e-09 0.00449822 -1.70338e-08
-2.89014e-09 0.00449822 -1.69119e-08
-3.19183e-09 0.00449822 -1.70546e-08
-3.7494e-09 0.00449822 -1.70258e-08
-3.39698e-09 0.00449822 -1.70659e-08
-3.17991e-09 0.00449822 -1.71477e-08
-3.00478e-09 0.00449822 -1.7188e-08
-2.80894e-09 0.00449822 -1.6941e-08
-3.65302e-09 0.00449822 -1.69548e-08
-3.45706e-09 0.00449822 -1.71243e-08
-3.24875e-09 0.00449822 -1.71417e-08
-3.01304e-09 0.00449822 -1.72041e-08
-2.72859e-09 0.00449822 -1.717e-08
-3.71896e-09 0.00449822 -1.68446e-08
-3.57703e-09 0.00449822 -1.70939e-08
-3.3263e-09 0.00449822 -1.72432e-08
-2.97052e-09 0.00449822 -1.73341e-08
-2.62263e-09 0.00449822 -1.72036e-08
-3.53364e-09 0.00449822 -1.67639e-08
-3.65373e-09 0.00449822 -1.71574e-08
-3.02846e-09 0.00449822 -1.70989e-08
-3.00406e-09 0.00449822 -1.73952e-08
-2.93254e-09 0.00449822 -1.72407e-08
-3.80724e-09 0.00492472 -1.71334e-08
-3.60989e-09 0.00492472 -1.74216e-08
-3.44096e-09 0.00492472 -1.71895e-08
-3.55182e-09 0.00492472 -1.74125e-08
-3.91006e-09 0.00492472 -1.73464e-08
-3.87892e-09 0.00492472 -1.73587e-08
-3.72604e-09 0.00492472 -1.74964e-08
-3.70776e-09 0.00492472 -1.74522e-08
-3.53326e-09 0.00492472 -1.75372e-08
-3.71841e-09 0.00492472 -1.74461e-08
-3.94132e-09 0.00492472 -1.74142e-08
-3.74468e-09 0.00492472 -1.74985e-08
-3.58344e-09 0.00492472 -1.75291e-08
-3.61147e-09 0.00492472 -1.75761e-08
-3.44663e-09 0.00492472 -1.75644e-08
-3.70888e-09 0.00492472 -1.75055e-08
-3.77328e-09 0.00492472 -1.75549e-08
-3.80017e-09 0.00492472 -1.76571e-08
-3.46824e-09 0.00492472 -1.76816e-08
-3.51818e-09 0.00492472 -1.75273e-08
-3.77212e-09 0.00492472 -1.7445e-08
-3.85439e-09 0.00492472 -1.75748e-08
-3.70342e-09 0.00492472 -1.75342e-08
-3.50218e-09 0.00492472 -1.75477e-08
-3.37364e-09 0.00492472 -1.76465e-08
-3.82792e-09 0.00526331 -1.69557e-08
-3.97414e-09 0.00526331 -1.67544e-08
-3.9017e-09 0.00526331 -1.69834e-08
-4.29899e-09 0.00526331 -1.67418e-08
-4.2763e-09 0.00526331 -1.69643e-08
-3.83888e-09 0.00526331 -1.68734e-08
-3.89973e-09 0.00526331 -1.69685e-08
-4.03185e-09 0.00526331 -1.69466e-08
-4.28004e-09 0.00526331 -1.69679e-08
-4.16859e-09 0.00526331 -1.69306e-08
-3.92945e-09 0.00526331 -1.69183e-08
-3.87762e-09 0.00526331 -1.69765e-08
-4.01688e-09 0.00526331 -1.69835e-08
-4.22661e-09 0.00526331 -1.69369e-08
-4.1237e-09 0.00526331 -1.69754e-08
-3.77744e-09 0.00526331 -1.70541e-08
-4.06194e-09 0.00526331 -1.70898e-08
-4.04585e-09 0.00526331 -1.70001e-08
-4.20434e-09 0.00526331 -1.69548e-08
-4.2945e-09 0.00526331 -1.69643e-08
-3.84901e-09 0.00526331 -1.71363e-08
-3.97813e-09 0.00526331 -1.71577e-08
-4.11164e-09 0.00526331 -1.69232e-08
-4.08312e-09 0.00526331 -1.70529e-08
-4.2844e-09 0.00526331 -1.68779e-08
-3.76636e-09 0.00554075 -1.5431e-08
-4.11401e-09 0.00554075 -1.55752e-08
-4.50045e-09 0.00554075 -1.56093e-08
-4.82523e-09 0.00554075 -1.56598e-08
-5.15353e-09 0.00554075 -1.5504e-08
-3.8269e-09 0.00554075 -1.55731e-08
-4.13679e-09 0.00554075 -1.56118e-08
-4.49393e-09 0.00554075 -1.56591e-08
-4.84722e-09 0.00554075 -1.55914e-08
-5.02841e-09 0.00554075 -1.5537e-08
-3.80669e-09 0.00554075 -1.55825e-08
-4.18703e-09 0.00554075 -1.57132e-08
-4.48226e-09 0.00554075 -1.55992e-08
-4.84905e-09 0.00554075 -1.55915e-08
-5.1573e-09 0.00554075 -1.5544e-08
-3.7761e-09 0.00554075 -1.5819e-08
-4.11813e-09 0.00554075 -1.567e-08
-4.47977e-09 0.00554075 -1.56531e-08
-4.73707e-09 0.00554075 -1.56124e-08
-5.12153e-09 0.00554075 -1.55781e-08
-3.72245e-09 0.00554075 -1.57749e-08
-4.32964e-09 0.00554075 -1.58595e-08
-4.405e-09 0.00554075 -1.54968e-08
-4.81196e-09 0.00554075 -1.55201e-08
-5.08067e-09 0.00554075 -1.54841e-08
-4.02714e-09 0.00579494 -1.34523e-08
-4.42807e-09 0.00579494 -1.34015e-08
-4.97411e-09 0.00579494 -1.34886e-08
-5.38527e-09 0.00579494 -1.33771e-08
-5.628e-09 0.00579494 -1.34755e-08
-3.9784e-09 0.00579494 -1.35074e-08
-4.37775e-09 0.00579494 -1.35895e-08
-4.9323e-09 0.00579494 -1.34989e-08
-5.35102e-09 0.00579494 -1.34955e-08
-5.82356e-09 0.00579494 -1.34604e-08
-3.98551e-09 0.00579494 -1.35492e-08
-4.42081e-09 0.00579494 -1.35877e-08
-4.84585e-09 0.00579494 -1.3554e-08
-5.39168e-09 0.00579494 -1.35348e-08
-5.91255e-09 0.00579494 -1.36056e-08
-3.96779e-09 0.00579494 -1.3624e-08
-4.37983e-09 0.00579494 -1.36614e-08
-4.81679e-09 0.00579494 -1.3566e-08
-5.41208e-09 0.00579494 -1.36365e-08
-5.89523e-09 0.00579494 -1.35059e-08
-4.03432e-09 0.00579494 -1.35634e-08
-4.31023e-09 0.00579494 -1.36964e-08
-4.78326e-09 0.00579494 -1.35959e-08
-5.44463e-09 0.00579494 -1.34553e-08
-5.73832e-09 0.00579494 -1.36085e-08
-4.07692e-09 0.00607307 -1.07694e-08
-4.81604e-09 0.00607307 -1.09853e-08
-5.26044e-09 0.00607307 -1.07389e-08
-5.90086e-09 0.00607307 -1.06791e-08
-6.73753e-09 0.00607307 -1.05453e-08
-4.16823e-09 0.00607307 -1.08354e-08
-4.75903e-09 0.00607307 -1.08692e-08
-5.27501e-09 0.00607307 -1.07987e-08
-5.93884e-09 0.00607307 -1.07894e-08
-6.42469e-09 0.00607307 -1.07061e-08
-4.17527e-09 0.00607307 -1.08929e-08
-4.70057e-09 0.00607307 -1.09175e-08
-5.31674e-09 0.00607307 -1.08541e-08
-5.94259e-09 0.00607307 -1.09375e-08
-6.45925e-09 0.00607307 -1.08029e-08
-4.14251e-09 0.00607307 -1.08366e-08
-4.77376e-09 0.00607307 -1.0897e-08
-5.38979e-09 0.00607307 -1.10485e-08
-6.00218e-09 0.00607307 -1.09686e-08
-6.65327e-09 0.00607307 -1.09592e-08
-4.3815e-09 0.00607307 -1.08945e-08
-4.66112e-09 0.00607307 -1.09573e-08
-5.24522e-09 0.00607307 -1.09077e-08
-5.87702e-09 0.00607307 -1.09645e-08
-6.41092e-09 0.00607307 -1.07586e-08
-4.44505e-09 0.0064286 -7.88511e-09
-5.40766e-09 0.00642861 -7.97514e-09
-5.82489e-09 0.00642861 -7.64628e-09
-6.32031e-09 0.00642861 -7.50715e-09
-6.86644e-09 0.0064286 -7.51225e-09
-4.42557e-09 0.00642861 -7.82789e-09
-5.20596e-09 0.00642861 -7.6691e-09
-5.77629e-09 0.00642861 -7.72513e-09
-6.43658e-09 0.00642861 -7.57145e-09
-7.20842e-09 0.0064286 -7.59798e-09
-4.37069e-09 0.00642861 -7.67102e-09
-5.09197e-09 0.00642861 -7.83513e-09
-5.84461e-09 0.00642861 -7.80422e-09
-6.54322e-09 0.0064286 -7.74689e-09
-6.77995e-09 0.0064286 -7.7313e-09
-4.56777e-09 0.0064286 -7.84651e-09
-5.19069e-09 0.0064286 -7.78637e-09
-5.81124e-09 0.0064286 -7.90754e-09
-6.51273e-09 0.0064286 -7.8574e-09
-7.34144e-09 0.0064286 -8.23789e-09
-4.49268e-09 0.0064286 -7.66818e-09
-5.39146e-09 0.0064286 -7.82389e-09
-5.78759e-09 0.0064286 -7.87413e-09
-6.48952e-09 0.0064286 -7.96395e-09
-7.45653e-09 0.0064286 -7.67453e-09
-5.39515e-09 0.00691703 -4.48718e-09
-5.81211e-09 0.00691703 -4.41173e-09
-6.34345e-09 0.00691703 -4.07052e-09
-6.56771e-09 0.00691703 -4.05152e-09
-7.242e-09 0.00691702 -4.33925e-09
-5.04794e-09 0.00691703 -4.57952e-09
-5.68294e-09 0.00691703 -4.49821e-09
-6.32877e-09 0.00691703 -4.41369e-09
-6.74756e-09 0.00691703 -4.38856e-09
-7.61004e-09 0.00691703 -4.22127e-09
-5.05152e-09 0.00691703 -4.46175e-09
-5.7638e-09 0.00691703 -4.39833e-09
-6.29818e-09 0.00691702 -4.51605e-09
-6.89253e-09 0.00691703 -4.35279e-09
-7.58986e-09 0.00691702 -4.29373e-09
-4.91308e-09 0.00691703 -4.17148e-09
-5.71236e-09 0.00691702 -4.61842e-09
-6.42277e-09 0.00691702 -4.48436e-09
-7.04305e-09 0.00691702 -4.71255e-09
-7.48897e-09 0.00691702 -4.46158e-09
-5.33613e-09 0.00691702 -4.33925e-09
-5.67286e-09 0.00691702 -4.4059e-09
-6.4033e-09 0.00691702 -4.48395e-09
-7.08391e-09 0.00691702 -4.40772e-09
-7.34154e-09 0.00691702 -4.26999e-09
-5.55157e-09 0.00759062 -4.78892e-10
-6.33e-09 0.00759062 -1.06738e-09
-6.53787e-09 0.00759061 -5.38922e-10
-7.33258e-09 0.00759061 -6.34689e-10
-7.97453e-09 0.00759061 -1.04786e-09
-5.81619e-09 0.00759061 -1.01318e-09
-6.00335e-09 0.00759061 -8.69795e-10
-6.6801e-09 0.00759061 -7.60675e-10
-7.34925e-09 0.00759061 -8.23322e-10
-7.97215e-09 0.00759061 -8.4774e-10
-5.26161e-09 0.00759061 -9.30775e-10
-6.14224e-09 0.00759061 -9.13442e-10
-6.67351e-09 0.00759061 -1.27734e-09
-7.37012e-09 0.00759061 -1.19717e-09
-7.28604e-09 0.00759061 -1.07609e-09
-5.5909e-09 0.00759061 -1.03162e-09
-6.39711e-09 0.00759061 -1.01171e-09
-6.83721e-09 0.00759061 -1.07424e-09
-7.53015e-09 0.00759061 -1.08407e-09
-7.7605e-09 0.00759061 -9.55324e-10
-5.5149e-09 0.00759061 -1.29962e-09
-6.11546e-09 0.00759061 -9.99925e-10
-6.78299e-09 0.00759061 -1.27697e-09
-7.85441e-09 0.0075906 -9.39542e-10
-7.98688e-09 0.0075906 -1.00817e-09
-6.90523e-09 0.00849254 2.22691e-09
-6.69658e-09 0.00849254 2.65469e-09
-6.70736e-09 0.00849254 1.98269e-09
-7.57047e-09 0.00849253 2.22245e-09
-7.97509e-09 0.00849254 2.66398e-09
-6.29121e-09 0.00849254 2.3386e-09
-6.83063e-09 0.00849254 2.14673e-09
-6.951e-09 0.00849254 2.19691e-09
-7.55654e-09 0.00849254 2.23354e-09
-7.71472e-09 0.00849254 2.09282e-09
-6.01305e-09 0.00849254 2.34599e-09
-6.66674e-09 0.00849254 2.24211e-09
-7.18077e-09 0.00849254 2.21359e-09
-7.58877e-09 0.00849253 2.17406e-09
-8.02928e-09 0.00849253 2.02789e-09
-6.09199e-09 0.00849253 2.01902e-09
-6.76207e-09 0.00849253 2.25496e-09
-7.23394e-09 0.00849253 2.17518e-09
-7.8326e-09 0.00849253 2.11823e-09
-8.05105e-09 0.00849253 1.98278e-09
-5.89491e-09 0.00849253 2.00164e-09
-6.69174e-09 0.00849253 1.99719e-09
-7.69614e-09 0.00849253 2.15564e-09
-7.9878e-09 0.00849253 2.38287e-09
-8.70116e-09 0.00849253 2.07831e-09
-7.15612e-09 0.00965089 5.14871e-09
-7.16679e-09 0.0096509 5.42907e-09
-7.48631e-09 0.00965089 5.60055e-09
-7.54939e-09 0.0096509 4.97268e-09
-8.20158e-09 0.00965089 4.32563e-09
-7.03538e-09 0.00965089 5.00536e-09
-7.22635e-09 0.00965089 5.19849e-09
-7.34115e-09 0.00965089 4.92587e-09
-7.89352e-09 0.00965089 5.00192e-09
-8.05855e-09 0.0096509 4.87304e-09
-6.41043e-09 0.00965089 5.17603e-09
-7.28072e-09 0.00965089 5.09284e-09
-7.60551e-09 0.00965089 5.11561e-09
-7.95131e-09 0.00965089 5.01872e-09
-8.28975e-09 0.00965089 5.07723e-09
-7.08189e-09 0.00965089 4.85046e-09
-7.05052e-09 0.00965089 4.97947e-09
-7.68454e-09 0.00965089 5.00782e-09
-8.22246e-09 0.00965089 4.94419e-09
-8.41286e-09 0.00965089 5.10799e-09
-6.29427e-09 0.00965089 4.77706e-09
-7.2956e-09 0.00965089 4.75712e-09
-7.46561e-09 0.00965089 4.89218e-09
-7.95619e-09 0.00965089 4.92121e-09
-8.39237e-09 0.00965089 4.58322e-09
-7.57811e-09 0.0110734 7.35429e-09
-7.93935e-09 0.0110734 7.41129e-09
-7.57724e-09 0.0110734 7.1309e-09
-7.99892e-09 0.0110734 7.15797e-09
-8.43147e-09 0.0110734 6.76752e-09
-7.02093e-09 0.0110734 7.23298e-09
-7.70079e-09 0.0110734 7.20471e-09
-7.95123e-09 0.0110734 7.20179e-09
-8.1181e-09 0.0110734 7.16377e-09
-8.28223e-09 0.0110734 7.26888e-09
-7.18738e-09 0.0110734 6.68049e-09
-7.57573e-09 0.0110734 7.00109e-09
-7.8298e-09 0.0110734 6.99643e-09
-8.12956e-09 0.0110734 7.15481e-09
-8.56813e-09 0.0110734 7.21623e-09
-6.50257e-09 0.0110734 7.01035e-09
-7.49758e-09 0.0110734 6.85973e-09
-7.83319e-09 0.0110734 7.05035e-09
-8.14302e-09 0.0110734 7.04585e-09
-8.34691e-09 0.0110734 7.1656e-09
-6.36966e-09 0.0110734 7.23775e-09
-7.3689e-09 0.0110734 7.10004e-09
-7.53564e-09 0.0110734 6.93877e-09
-8.15531e-09 0.0110734 7.01559e-09
-9.41158e-09 0.0110734 7.24079e-09
-7.53625e-09 0.0127439 8.73514e-09
-7.98704e-09 0.0127439 8.29099e-09
-8.00976e-09 0.0127439 8.46722e-09
-7.54593e-09 0.0127439 8.07125e-09
-9.05397e-09 0.0127439 8.7023e-09
-7.85766e-09 0.0127439 8.11298e-09
-8.00561e-09 0.0127439 8.47526e-09
-7.90356e-09 0.0127439 8.4125e-09
-8.14501e-09 0.0127439 8.36588e-09
-8.06153e-09 0.0127439 8.24262e-09
-7.68454e-09 0.0127439 8.35601e-09
-7.93633e-09 0.0127439 8.11302e-09
-7.85722e-09 0.0127439 8.31719e-09
-8.16395e-09 0.0127439 8.39275e-09
-7.94296e-09 0.0127439 8.3492e-09
-7.53452e-09 0.0127439 8.19248e-09
-7.91995e-09 0.0127439 8.35065e-09
-7.89385e-09 0.0127439 8.34376e-09
-7.95751e-09 0.0127439 8.51132e-09
-8.08987e-09 0.0127439 8.59506e-09
-7.3135e-09 0.0127439 8.91727e-09
-7.56044e-09 0.0127439 8.1213e-09
-7.83953e-09 0.0127439 8.52246e-09
-7.9906e-09 0.0127439 8.65855e-09
-8.36846e-09 0.0127439 8.68425e-09
-8.02281e-09 0.0146212 8.50559e-09
-7.84701e-09 0.0146212 8.59719e-09
-7.93653e-09 0.0146212 8.77303e-09
-7.92745e-09 0.0146212 8.61681e-09
-7.19281e-09 0.0146212 8.50065e-09
-8.38144e-09 0.0146212 8.782e-09
-7.97252e-09 0.0146212 8.68374e-09
-7.84139e-09 0.0146212 8.77858e-09
-7.73678e-09 0.0146212 8.76474e-09
-7.42049e-09 0.0146212 8.63309e-09
-8.09161e-09 0.0146212 8.87668e-09
-7.91924e-09 0.0146212 8.74188e-09
-7.76946e-09 0.0146212 8.90979e-09
-7.72197e-09 0.0146212 8.92712e-09
-7.33356e-09 0.0146212 8.74149e-09
-7.76292e-09 0.0146212 9.04344e-09
-7.76916e-09 0.0146212 8.94579e-09
-7.75943e-09 0.0146212 9.30626e-09
-7.61063e-09 0.0146212 9.29088e-09
-7.40322e-09 0.0146212 9.23862e-09
-7.8435e-09 0.0146212 9.07771e-09
-7.77802e-09 0.0146212 9.02468e-09
-7.56222e-09 0.0146212 9.34656e-09
-7.7996e-09 0.0146212 9.29519e-09
-7.35966e-09 0.0146212 8.90986e-09
-7.70529e-09 0.0166418 8.70138e-09
-7.76052e-09 0.0166418 8.33473e-09
-7.53083e-09 0.0166418 8.84645e-09
-7.43569e-09 0.0166418 8.66223e-09
-6.85455e-09 0.0166418 8.58111e-09
-7.6413e-09 0.0166418 8.45044e-09
-7.65316e-09 0.0166418 8.66176e-09
-7.5298e-09 0.0166418 8.53436e-09
-7.34034e-09 0.0166418 8.68341e-09
-6.59508e-09 0.0166418 8.55697e-09
-7.69269e-09 0.0166418 8.69486e-09
-7.65174e-09 0.0166418 8.71319e-09
-7.37456e-09 0.0166418 8.85355e-09
-7.20355e-09 0.0166418 8.5962e-09
-6.57983e-09 0.0166418 8.52306e-09
-7.83806e-09 0.0166418 8.89897e-09
-7.47775e-09 0.0166418 8.81705e-09
-7.31614e-09 0.0166418 9.04086e-09
-7.1584e-09 0.0166418 8.87486e-09
-7.12573e-09 0.0166418 8.83263e-09
-7.64633e-09 0.0166418 8.85126e-09
-7.42414e-09 0.0166418 9.0331e-09
-7.29844e-09 0.0166418 8.80227e-09
-7.20375e-09 0.0166418 9.01559e-09
-7.03333e-09 0.0166418 9.01718e-09
-7.20023e-09 0.0187265 8.06149e-09
-6.91413e-09 0.0187265 7.56989e-09
-6.80683e-09 0.0187265 7.71092e-09
-6.70549e-09 0.0187265 7.82453e-09
-5.82638e-09 0.0187265 7.67236e-09
-7.57682e-09 0.0187265 7.78292e-09
-7.23579e-09 0.0187265 7.83565e-09
-6.80091e-09 0.0187265 7.97216e-09
-6.56323e-09 0.0187265 7.79712e-09
-5.84086e-09 0.0187265 8.15809e-09
-7.73725e-09 0.0187265 8.05219e-09
-7.08735e-09 0.0187265 7.87909e-09
-6.91416e-09 0.0187265 8.08561e-09
-6.37696e-09 0.0187265 8.12365e-09
-5.72349e-09 0.0187265 7.71683e-09
-7.24488e-09 0.0187265 8.08379e-09
-7.10274e-09 0.0187265 8.29372e-09
-6.72152e-09 0.0187265 8.11143e-09
-6.35534e-09 0.0187265 7.89364e-09
-5.87396e-09 0.0187265 8.08591e-09
-6.98769e-09 0.0187265 8.34386e-09
-7.14214e-09 0.0187265 7.51817e-09
-6.53713e-09 0.0187265 8.18484e-09
-6.20033e-09 0.0187265 7.91217e-09
-6.29737e-09 0.0187265 8.30127e-09
-6.60978e-09 0.0207914 6.46712e-09
-6.63564e-09 0.0207914 6.67231e-09
-5.76814e-09 0.0207914 5.83887e-09
-5.58498e-09 0.0207914 6.75236e-09
-4.56529e-09 0.0207914 6.8305e-09
-7.02741e-09 0.0207914 6.80123e-09
-6.20652e-09 0.0207914 6.30093e-09
-5.74592e-09 0.0207914 6.42712e-09
-5.44795e-09 0.0207914 6.72852e-09
-4.9979e-09 0.0207914 6.72106e-09
-6.75999e-09 0.0207914 6.55197e-09
-6.2365e-09 0.0207914 6.83173e-09
-5.97007e-09 0.0207914 6.83656e-09
-5.47771e-09 0.0207914 6.65296e-09
-4.56864e-09 0.0207914 6.96884e-09
-6.31513e-09 0.0207914 6.56547e-09
-6.39255e-09 0.0207914 6.80114e-09
-5.56476e-09 0.0207914 6.84587e-09
-5.30782e-09 0.0207914 6.77481e-09
-4.7743e-09 0.0207914 6.59167e-09
-6.12455e-09 0.0207914 6.43479e-09