<?xml version="1.0"?>
<VTKFile type="UnstructuredGrid" version="0.1" byte_order="LittleEndian">
<UnstructuredGrid>
<Piece NumberOfPoints="1025" NumberOfCells="640">
<Points>
<DataArray type="Float32" NumberOfComponents="3" format="ascii">
0 0 0
0.025 0 0
0.05 0 0
0.075 0 0
0.1 0 0
0 0.025 0
0.025 0.025 0
0.05 0.025 0
0.075 0.025 0
0.1 0.025 0
0 0.05 0
0.025 0.05 0
0.05 0.05 0
0.075 0.05 0
0.1 0.05 0
0 0.075 0
0.025 0.075 0
0.05 0.075 0
0.075 0.075 0
0.1 0.075 0
0 0.1 0
0.025 0.1 0
0.05 0.1 0
0.075 0.1 0
0.1 0.1 0
0 0 0.025
0.025 0 0.025
0.05 0 0.025
0.075 0 0.025
0.1 0 0.025
0 0.025 0.025
0.025 0.025 0.025
0.05 0.025 0.025
0.075 0.025 0.025
0.1 0.025 0.025
0 0.05 0.025
0.025 0.05 0.025
0.05 0.05 0.025
0.075 0.05 0.025
0.1 0.05 0.025
0 0.075 0.025
0.025 0.075 0.025
0.05 0.075 0.025
0.075 0.075 0.025
0.1 0.075 0.025
0 0.1 0.025
0.025 0.1 0.025
0.05 0.1 0.025
0.075 0.1 0.025
0.1 0.1 0.025
0 0 0.05
0.025 0 0.05
0.05 0 0.05
0.075 0 0.05
0.1 0 0.05
0 0.025 0.05
0.025 0.025 0.05
0.05 0.025 0.05
0.075 0.025 0.05
0.1 0.025 0.05
0 0.05 0.05
0.025 0.05 0.05
0.05 0.05 0.05
0.075 0.05 0.05
0.1 0.05 0.05
0 0.075 0.05
0.025 0.075 0.05
0.05 0.075 0.05
0.075 0.075 0.05
0.1 0.075 0.05
0 0.1 0.05
0.025 0.1 0.05
0.05 0.1 0.05
0.075 0.1 0.05
0.1 0.1 0.05
0 0 0.075
0.025 0 0.075
0.05 0 0.075
0.075 0 0.075
0.1 0 0.075
0 0.025 0.075
0.025 0.025 0.075
0.05 0.025 0.075
0.075 0.025 0.075
0.1 0.025 0.075
0 0.05 0.075
0.025 0.05 0.075
0.05 0.05 0.075
0.075 0.05 0.075
0.1 0.05 0.075
0 0.075 0.075
0.025 0.075 0.075
0.05 0.075 0.075
0.075 0.075 0.075
0.1 0.075 0.075
0 0.1 0.075
0.025 0.1 0.075
0.05 0.1 0.075
0.075 0.1 0.075
0.1 0.1 0.075
0 0 0.1
0.025 0 0.1
0.05 0 0.1
0.075 0 0.1
0.1 0 0.1
0 0.025 0.1
0.025 0.025 0.1
0.05 0.025 0.1
0.075 0.025 0.1
0.1 0.025 0.1
0 0.05 0.1
0.025 0.05 0.1
0.05 0.05 0.1
0.075 0.05 0.1
0.1 0.05 0.1
0 0.075 0.1
0.025 0.075 0.1
0.05 0.075 0.1
0.075 0.075 0.1
0.1 0.075 0.1
0 0.1 0.1
0.025 0.1 0.1
0.05 0.1 0.1
0.075 0.1 0.1
0.1 0.1 0.1
0 0 0.125
0.025 0 0.125
0.05 0 0.125
0.075 0 0.125
0.1 0 0.125
0 0.025 0.125
0.025 0.025 0.125
0.05 0.025 0.125
0.075 0.025 0.125
0.1 0.025 0.125
0 0.05 0.125
0.025 0.05 0.125
0.05 0.05 0.125
0.075 0.05 0.125
0.1 0.05 0.125
0 0.075 0.125
0.025 0.075 0.125
0.05 0.075 0.125
0.075 0.075 0.125
0.1 0.075 0.125
0 0.1 0.125
0.025 0.1 0.125
0.05 0.1 0.125
0.075 0.1 0.125
0.1 0.1 0.125
0 0 0.15
0.025 0 0.15
0.05 0 0.15
0.075 0 0.15
0.1 0 0.15
0 0.025 0.15
0.025 0.025 0.15
0.05 0.025 0.15
0.075 0.025 0.15
0.1 0.025 0.15
0 0.05 0.15
0.025 0.05 0.15
0.05 0.05 0.15
0.075 0.05 0.15
0.1 0.05 0.15
0 0.075 0.15
0.025 0.075 0.15
0.05 0.075 0.15
0.075 0.075 0.15
0.1 0.075 0.15
0 0.1 0.15
0.025 0.1 0.15
0.05 0.1 0.15
0.075 0.1 0.15
0.1 0.1 0.15
0 0 0.175
0.025 0 0.175
0.05 0 0.175
0.075 0 0.175
0.1 0 0.175
0 0.025 0.175
0.025 0.025 0.175
0.05 0.025 0.175
0.075 0.025 0.175
0.1 0.025 0.175
0 0.05 0.175
0.025 0.05 0.175
0.05 0.05 0.175
0.075 0.05 0.175
0.1 0.05 0.175
0 0.075 0.175
0.025 0.075 0.175
0.05 0.075 0.175
0.075 0.075 0.175
0.1 0.075 0.175
0 0.1 0.175
0.025 0.1 0.175
0.05 0.1 0.175
0.075 0.1 0.175
0.1 0.1 0.175
0 0 0.2
0.025 0 0.2
0.05 0 0.2
0.075 0 0.2
0.1 0 0.2
0 0.025 0.2
0.025 0.025 0.2
0.05 0.025 0.2
0.075 0.025 0.2
0.1 0.025 0.2
0 0.05 0.2
0.025 0.05 0.2
0.05 0.05 0.2
0.075 0.05 0.2
0.1 0.05 0.2
0 0.075 0.2
0.025 0.075 0.2
0.05 0.075 0.2
0.075 0.075 0.2
0.1 0.075 0.2
0 0.1 0.2
0.025 0.1 0.2
0.05 0.1 0.2
0.075 0.1 0.2
0.1 0.1 0.2
0 0 0.225
0.025 0 0.225
0.05 0 0.225
0.075 0 0.225
0.1 0 0.225
0 0.025 0.225
0.025 0.025 0.225
0.05 0.025 0.225
0.075 0.025 0.225
0.1 0.025 0.225
0 0.05 0.225
0.025 0.05 0.225
0.05 0.05 0.225
0.075 0.05 0.225
0.1 0.05 0.225
0 0.075 0.225
0.025 0.075 0.225
0.05 0.075 0.225
0.075 0.075 0.225
0.1 0.075 0.225
0 0.1 0.225
0.025 0.1 0.225
0.05 0.1 0.225
0.075 0.1 0.225
0.1 0.1 0.225
0 0 0.25
0.025 0 0.25
0.05 0 0.25
0.075 0 0.25
0.1 0 0.25
0 0.025 0.25
0.025 0.025 0.25
0.05 0.025 0.25
0.075 0.025 0.25
0.1 0.025 0.25
0 0.05 0.25
0.025 0.05 0.25
0.05 0.05 0.25
0.075 0.05 0.25
0.1 0.05 0.25
0 0.075 0.25
0.025 0.075 0.25
0.05 0.075 0.25
0.075 0.075 0.25
0.1 0.075 0.25
0 0.1 0.25
0.025 0.1 0.25
0.05 0.1 0.25
0.075 0.1 0.25
0.1 0.1 0.25
0 0 0.275
0.025 0 0.275
0.05 0 0.275
0.075 0 0.275
0.1 0 0.275
0 0.025 0.275
0.025 0.025 0.275
0.05 0.025 0.275
0.075 0.025 0.275
0.1 0.025 0.275
0 0.05 0.275
0.025 0.05 0.275
0.05 0.05 0.275
0.075 0.05 0.275
0.1 0.05 0.275
0 0.075 0.275
0.025 0.075 0.275
0.05 0.075 0.275
0.075 0.075 0.275
0.1 0.075 0.275
0 0.1 0.275
0.025 0.1 0.275
0.05 0.1 0.275
0.075 0.1 0.275
0.1 0.1 0.275
0 0 0.3
0.025 0 0.3
0.05 0 0.3
0.075 0 0.3
0.1 0 0.3
0 0.025 0.3
0.025 0.025 0.3
0.05 0.025 0.3
0.075 0.025 0.3
0.1 0.025 0.3
0 0.05 0.3
0.025 0.05 0.3
0.05 0.05 0.3
0.075 0.05 0.3
0.1 0.05 0.3
0 0.075 0.3
0.025 0.075 0.3
0.05 0.075 0.3
0.075 0.075 0.3
0.1 0.075 0.3
0 0.1 0.3
0.025 0.1 0.3
0.05 0.1 0.3
0.075 0.1 0.3
0.1 0.1 0.3
0 0 0.325
0.025 0 0.325
0.05 0 0.325
0.075 0 0.325
0.1 0 0.325
0 0.025 0.325
0.025 0.025 0.325
0.05 0.025 0.325
0.075 0.025 0.325
0.1 0.025 0.325
0 0.05 0.325
0.025 0.05 0.325
0.05 0.05 0.325
0.075 0.05 0.325
0.1 0.05 0.325
0 0.075 0.325
0.025 0.075 0.325
0.05 0.075 0.325
0.075 0.075 0.325
0.1 0.075 0.325
0 0.1 0.325
0.025 0.1 0.325
0.05 0.1 0.325
0.075 0.1 0.325
0.1 0.1 0.325
0 0 0.35
0.025 0 0.35
0.05 0 0.35
0.075 0 0.35
0.1 0 0.35
0 0.025 0.35
0.025 0.025 0.35
0.05 0.025 0.35
0.075 0.025 0.35
0.1 0.025 0.35
0 0.05 0.35
0.025 0.05 0.35
0.05 0.05 0.35
0.075 0.05 0.35
0.1 0.05 0.35
0 0.075 0.35
0.025 0.075 0.35
0.05 0.075 0.35
0.075 0.075 0.35
0.1 0.075 0.35
0 0.1 0.35
0.025 0.1 0.35
0.05 0.1 0.35
0.075 0.1 0.35
0.1 0.1 0.35
0 0 0.375
0.025 0 0.375
0.05 0 0.375
0.075 0 0.375
0.1 0 0.375
0 0.025 0.375
0.025 0.025 0.375
0.05 0.025 0.375
0.075 0.025 0.375
0.1 0.025 0.375
0 0.05 0.375
0.025 0.05 0.375
0.05 0.05 0.375
0.075 0.05 0.375
0.1 0.05 0.375
0 0.075 0.375
0.025 0.075 0.375
0.05 0.075 0.375
0.075 0.075 0.375
0.1 0.075 0.375
0 0.1 0.375
0.025 0.1 0.375
0.05 0.1 0.375
0.075 0.1 0.375
0.1 0.1 0.375
0 0 0.4
0.025 0 0.4
0.05 0 0.4
0.075 0 0.4
0.1 0 0.4
0 0.025 0.4
0.025 0.025 0.4
0.05 0.025 0.4
0.075 0.025 0.4
0.1 0.025 0.4
0 0.05 0.4
0.025 0.05 0.4
0.05 0.05 0.4
0.075 0.05 0.4
0.1 0.05 0.4
0 0.075 0.4
0.025 0.075 0.4
0.05 0.075 0.4
0.075 0.075 0.4
0.1 0.075 0.4
0 0.1 0.4
0.025 0.1 0.4
0.05 0.1 0.4
0.075 0.1 0.4
0.1 0.1 0.4
0 0 0.425
0.025 0 0.425
0.05 0 0.425
0.075 0 0.425
0.1 0 0.425
0 0.025 0.425
0.025 0.025 0.425
0.05 0.025 0.425
0.075 0.025 0.425
0.1 0.025 0.425
0 0.05 0.425
0.025 0.05 0.425
0.05 0.05 0.425
0.075 0.05 0.425
0.1 0.05 0.425
0 0.075 0.425
0.025 0.075 0.425
0.05 0.075 0.425
0.075 0.075 0.425
0.1 0.075 0.425
0 0.1 0.425
0.025 0.1 0.425
0.05 0.1 0.425
0.075 0.1 0.425
0.1 0.1 0.425
0 0 0.45
0.025 0 0.45
0.05 0 0.45
0.075 0 0.45
0.1 0 0.45
0 0.025 0.45
0.025 0.025 0.45
0.05 0.025 0.45
0.075 0.025 0.45
0.1 0.025 0.45
0 0.05 0.45
0.025 0.05 0.45
0.05 0.05 0.45
0.075 0.05 0.45
0.1 0.05 0.45
0 0.075 0.45
0.025 0.075 0.45
0.05 0.075 0.45
0.075 0.075 0.45
0.1 0.075 0.45
0 0.1 0.45
0.025 0.1 0.45
0.05 0.1 0.45
0.075 0.1 0.45
0.1 0.1 0.45
0 0 0.475
0.025 0 0.475
0.05 0 0.475
0.075 0 0.475
0.1 0 0.475
0 0.025 0.475
0.025 0.025 0.475
0.05 0.025 0.475
0.075 0.025 0.475
0.1 0.025 0.475
0 0.05 0.475
0.025 0.05 0.475
0.05 0.05 0.475
0.075 0.05 0.475
0.1 0.05 0.475
0 0.075 0.475
0.025 0.075 0.475
0.05 0.075 0.475
0.075 0.075 0.475
0.1 0.075 0.475
0 0.1 0.475
0.025 0.1 0.475
0.05 0.1 0.475
0.075 0.1 0.475
0.1 0.1 0.475
0 0 0.5
0.025 0 0.5
0.05 0 0.5
0.075 0 0.5
0.1 0 0.5
0 0.025 0.5
0.025 0.025 0.5
0.05 0.025 0.5
0.075 0.025 0.5
0.1 0.025 0.5
0 0.05 0.5
0.025 0.05 0.5
0.05 0.05 0.5
0.075 0.05 0.5
0.1 0.05 0.5
0 0.075 0.5
0.025 0.075 0.5
0.05 0.075 0.5
0.075 0.075 0.5
0.1 0.075 0.5
0 0.1 0.5
0.025 0.1 0.5
0.05 0.1 0.5
0.075 0.1 0.5
0.1 0.1 0.5
0 0 0.525
0.025 0 0.525
0.05 0 0.525
0.075 0 0.525
0.1 0 0.525
0 0.025 0.525
0.025 0.025 0.525
0.05 0.025 0.525
0.075 0.025 0.525
0.1 0.025 0.525
0 0.05 0.525
0.025 0.05 0.525
0.05 0.05 0.525
0.075 0.05 0.525
0.1 0.05 0.525
0 0.075 0.525
0.025 0.075 0.525
0.05 0.075 0.525
0.075 0.075 0.525
0.1 0.075 0.525
0 0.1 0.525
0.025 0.1 0.525
0.05 0.1 0.525
0.075 0.1 0.525
0.1 0.1 0.525
0 0 0.55
0.025 0 0.55
0.05 0 0.55
0.075 0 0.55
0.1 0 0.55
0 0.025 0.55
0.025 0.025 0.55
0.05 0.025 0.55
0.075 0.025 0.55
0.1 0.025 0.55
0 0.05 0.55
0.025 0.05 0.55
0.05 0.05 0.55
0.075 0.05 0.55
0.1 0.05 0.55
0 0.075 0.55
0.025 0.075 0.55
0.05 0.075 0.55
0.075 0.075 0.55
0.1 0.075 0.55
0 0.1 0.55
0.025 0.1 0.55
0.05 0.1 0.55
0.075 0.1 0.55
0.1 0.1 0.55
0 0 0.575
0.025 0 0.575
0.05 0 0.575
0.075 0 0.575
0.1 0 0.575
0 0.025 0.575
0.025 0.025 0.575
0.05 0.025 0.575
0.075 0.025 0.575
0.1 0.025 0.575
0 0.05 0.575
0.025 0.05 0.575
0.05 0.05 0.575
0.075 0.05 0.575
0.1 0.05 0.575
0 0.075 0.575
0.025 0.075 0.575
0.05 0.075 0.575
0.075 0.075 0.575
0.1 0.075 0.575
0 0.1 0.575
0.025 0.1 0.575
0.05 0.1 0.575
0.075 0.1 0.575
0.1 0.1 0.575
0 0 0.6
0.025 0 0.6
0.05 0 0.6
0.075 0 0.6
0.1 0 0.6
0 0.025 0.6
0.025 0.025 0.6
0.05 0.025 0.6
0.075 0.025 0.6
0.1 0.025 0.6
0 0.05 0.6
0.025 0.05 0.6
0.05 0.05 0.6
0.075 0.05 0.6
0.1 0.05 0.6
0 0.075 0.6
0.025 0.075 0.6
0.05 0.075 0.6
0.075 0.075 0.6
0.1 0.075 0.6
0 0.1 0.6
0.025 0.1 0.6
0.05 0.1 0.6
0.075 0.1 0.6
0.1 0.1 0.6
0 0 0.625
0.025 0 0.625
0.05 0 0.625
0.075 0 0.625
0.1 0 0.625
0 0.025 0.625
0.025 0.025 0.625
0.05 0.025 0.625
0.075 0.025 0.625
0.1 0.025 0.625
0 0.05 0.625
0.025 0.05 0.625
0.05 0.05 0.625
0.075 0.05 0.625
0.1 0.05 0.625
0 0.075 0.625
0.025 0.075 0.625
0.05 0.075 0.625
0.075 0.075 0.625
0.1 0.075 0.625
0 0.1 0.625
0.025 0.1 0.625
0.05 0.1 0.625
0.075 0.1 0.625
0.1 0.1 0.625
0 0 0.65
0.025 0 0.65
0.05 0 0.65
0.075 0 0.65
0.1 0 0.65
0 0.025 0.65
0.025 0.025 0.65
0.05 0.025 0.65
0.075 0.025 0.65
0.1 0.025 0.65
0 0.05 0.65
0.025 0.05 0.65
0.05 0.05 0.65
0.075 0.05 0.65
0.1 0.05 0.65
0 0.075 0.65
0.025 0.075 0.65
0.05 0.075 0.65
0.075 0.075 0.65
0.1 0.075 0.65
0 0.1 0.65
0.025 0.1 0.65
0.05 0.1 0.65
0.075 0.1 0.65
0.1 0.1 0.65
0 0 0.675
0.025 0 0.675
0.05 0 0.675
0.075 0 0.675
0.1 0 0.675
[...]
<PointData Vectors="Displacement">
<DataArray type="Float32" Name="Displacement" NumberOfComponents="3" format="ascii">
0 0 0
0 0 0
0 0 0
0 0 0
0 0 0
0 0 0
0 0 0
0 0 0
0 0 0
0 0 0
0 0 0
0 0 0
0 0 0
0 0 0
0 0 0
0 0 0
0 0 0
0 0 0
0 0 0
0 0 0
0 0 0
0 0 0
0 0 0
0 0 0
0 0 0
-6.06587e-10 0.00125156 -9.04281e-10
-3.92249e-10 0.00125156 -9.50445e-10
-2.9082e-10 0.00125156 -9.19468e-10
-1.63621e-10 0.00125156 -9.33866e-10
4.15117e-11 0.00125156 -9.42211e-10
-5.81296e-10 0.00125156 -9.44152e-10
-4.09923e-10 0.00125156 -9.39446e-10
-2.75968e-10 0.00125156 -9.6514e-10
-1.66856e-10 0.00125156 -9.40364e-10
5.50589e-11 0.00125156 -9.46116e-10
-6.00849e-10 0.00125156 -9.52939e-10
-4.07769e-10 0.00125156 -9.58402e-10
-2.86198e-10 0.00125156 -9.54422e-10
-1.53615e-10 0.00125156 -9.56018e-10
4.31257e-11 0.00125156 -9.55986e-10
-5.70415e-10 0.00125156 -9.38858e-10
-4.06335e-10 0.00125156 -9.48237e-10
-2.83584e-10 0.00125156 -9.41544e-10
-1.72069e-10 0.00125156 -9.50481e-10
1.7915e-11 0.00125156 -9.38653e-10
-5.73264e-10 0.00125156 -9.26543e-10
-3.91583e-10 0.00125156 -9.22663e-10
-2.82762e-10 0.00125156 -9.35946e-10
-1.75421e-10 0.00125156 -9.11024e-10
1.65088e-11 0.00125156 -9.2491e-10
-8.79913e-10 0.00250307 -1.91532e-09
-7.81538e-10 0.00250307 -1.88343e-09
-5.67786e-10 0.00250307 -1.89289e-09
-3.95186e-10 0.00250307 -1.90039e-09
-1.8834e-10 0.00250307 -1.9356e-09
-1.0043e-09 0.00250307 -1.90323e-09
-7.3841e-10 0.00250307 -1.90863e-09
-5.7256e-10 0.00250307 -1.89972e-09
-3.63032e-10 0.00250307 -1.90667e-09
-1.78819e-10 0.00250307 -1.90019e-09
-1.01423e-09 0.00250307 -1.9102e-09
-7.79481e-10 0.00250307 -1.91589e-09
-5.7923e-10 0.00250307 -1.95252e-09
-4.00687e-10 0.00250307 -1.91764e-09
-1.15042e-10 0.00250307 -1.91322e-09
-9.53369e-10 0.00250307 -1.90152e-09
-7.79096e-10 0.00250307 -1.92202e-09
-5.82596e-10 0.00250307 -1.89227e-09
-4.10913e-10 0.00250307 -1.91605e-09
-1.44807e-10 0.00250307 -1.93515e-09
-8.92241e-10 0.00250307 -1.94868e-09
-7.62152e-10 0.00250307 -1.90593e-09
-5.88523e-10 0.00250307 -1.91419e-09
-4.30214e-10 0.00250307 -1.86999e-09
-2.77519e-10 0.00250307 -1.92335e-09
-1.25829e-09 0.0037545 -2.8268e-09
-1.08195e-09 0.0037545 -2.83321e-09
-8.75118e-10 0.0037545 -2.83908e-09
-7.01302e-10 0.0037545 -2.78158e-09
-4.15716e-10 0.0037545 -2.81114e-09
-1.3354e-09 0.0037545 -2.81703e-09
-1.1162e-09 0.0037545 -2.8344e-09
-8.79615e-10 0.0037545 -2.84351e-09
-6.85564e-10 0.0037545 -2.81446e-09
-4.57526e-10 0.0037545 -2.82469e-09
-1.33321e-09 0.0037545 -2.85808e-09
-1.14555e-09 0.0037545 -2.84517e-09
-9.04763e-10 0.0037545 -2.80848e-09
-6.60143e-10 0.0037545 -2.83157e-09
-3.78387e-10 0.0037545 -2.84177e-09
-1.3538e-09 0.0037545 -2.87931e-09
-1.11557e-09 0.0037545 -2.86756e-09
-9.14166e-10 0.0037545 -2.84914e-09
-7.08864e-10 0.0037545 -2.83283e-09
-4.71212e-10 0.0037545 -2.82319e-09
-1.30106e-09 0.0037545 -2.87e-09
-1.12043e-09 0.0037545 -2.8542e-09
-8.84327e-10 0.0037545 -2.87541e-09
-7.2473e-10 0.0037545 -2.85586e-09
-4.84668e-10 0.0037545 -2.86114e-09
-1.69061e-09 0.00500582 -3.73892e-09
-1.40878e-09 0.00500582 -3.74221e-09
-1.20114e-09 0.00500582 -3.72795e-09
-1.11378e-09 0.00500582 -3.73202e-09
-6.618e-10 0.00500582 -3.67409e-09
-1.66076e-09 0.00500582 -3.70397e-09
-1.48976e-09 0.00500582 -3.70513e-09
-1.2383e-09 0.00500582 -3.71128e-09
-1.03123e-09 0.00500582 -3.70557e-09
-7.58657e-10 0.00500582 -3.69719e-09
-1.75011e-09 0.00500582 -3.7587e-09
-1.49587e-09 0.00500582 -3.72978e-09
-1.24641e-09 0.00500582 -3.73849e-09
-1.01756e-09 0.00500582 -3.70054e-09
-7.05024e-10 0.00500582 -3.71704e-09
-1.71551e-09 0.00500582 -3.76106e-09
-1.51562e-09 0.00500582 -3.76281e-09
-1.25339e-09 0.00500582 -3.73291e-09
-1.0158e-09 0.00500582 -3.69702e-09
-7.72456e-10 0.00500582 -3.72606e-09
-1.68405e-09 0.00500582 -3.77714e-09
-1.47604e-09 0.00500582 -3.81035e-09
-1.26173e-09 0.00500582 -3.8224e-09
-1.01424e-09 0.00500582 -3.70276e-09
-8.68005e-10 0.00500582 -3.69601e-09
-1.99402e-09 0.006257 -4.53233e-09
-1.87908e-09 0.006257 -4.56506e-09
-1.67704e-09 0.006257 -4.51228e-09
-1.38433e-09 0.006257 -4.47258e-09
-1.14425e-09 0.006257 -4.3751e-09
-2.1088e-09 0.006257 -4.597e-09
-1.89421e-09 0.006257 -4.49253e-09
-1.65683e-09 0.006257 -4.52976e-09
-1.44957e-09 0.006257 -4.46394e-09
-1.14582e-09 0.006257 -4.45201e-09
-2.06647e-09 0.006257 -4.57767e-09
-1.92935e-09 0.006257 -4.5679e-09
-1.63233e-09 0.006257 -4.47638e-09
-1.41936e-09 0.006257 -4.43787e-09
-1.11526e-09 0.006257 -4.42419e-09
-2.21681e-09 0.006257 -4.55034e-09
-1.88479e-09 0.006257 -4.50197e-09
-1.61196e-09 0.006257 -4.42103e-09
-1.44055e-09 0.006257 -4.49706e-09
-1.1824e-09 0.006257 -4.49017e-09
-2.09036e-09 0.006257 -4.47451e-09
-1.89936e-09 0.006257 -4.51175e-09
-1.59343e-09 0.006257 -4.42591e-09
-1.40327e-09 0.006257 -4.4283e-09
-1.16752e-09 0.006257 -4.45183e-09
-2.50996e-09 0.00750803 -5.28815e-09
-2.43571e-09 0.00750803 -5.20865e-09
-2.08599e-09 0.00750803 -5.34036e-09
-1.93295e-09 0.00750803 -5.18195e-09
-1.49638e-09 0.00750803 -5.09276e-09
-2.60794e-09 0.00750803 -5.22381e-09
-2.37338e-09 0.00750803 -5.31009e-09
-2.10109e-09 0.00750803 -5.16859e-09
-1.86145e-09 0.00750803 -5.14287e-09
-1.70576e-09 0.00750803 -5.14655e-09
-2.60537e-09 0.00750803 -5.21094e-09
-2.35659e-09 0.00750803 -5.18945e-09
-2.10859e-09 0.00750803 -5.21159e-09
-1.85762e-09 0.00750803 -5.16795e-09
-1.71452e-09 0.00750803 -5.18571e-09
-2.60555e-09 0.00750803 -5.16135e-09
-2.32653e-09 0.00750803 -5.1936e-09
-2.09789e-09 0.00750803 -5.1115e-09
-1.92666e-09 0.00750803 -5.2167e-09
-1.62405e-09 0.00750803 -5.20443e-09
-2.47175e-09 0.00750803 -5.22069e-09
-2.28473e-09 0.00750803 -5.11263e-09
-2.08067e-09 0.00750803 -5.16639e-09
-1.96316e-09 0.00750803 -5.19068e-09
-1.6257e-09 0.00750803 -5.27993e-09
-3.29329e-09 0.00875888 -5.81787e-09
-2.97731e-09 0.00875888 -5.88157e-09
-2.57789e-09 0.00875888 -5.69423e-09
-2.27708e-09 0.00875888 -5.93126e-09
-2.39937e-09 0.00875888 -5.82953e-09
-3.20615e-09 0.00875888 -5.86607e-09
-2.92646e-09 0.00875888 -5.86022e-09
-2.61931e-09 0.00875888 -5.85736e-09
-2.37509e-09 0.00875888 -5.788e-09
-2.24251e-09 0.00875888 -5.89116e-09
-3.21015e-09 0.00875888 -5.71766e-09
-2.87483e-09 0.00875888 -5.75936e-09
-2.63674e-09 0.00875888 -5.75109e-09
-2.40726e-09 0.00875888 -5.79833e-09
-2.23423e-09 0.00875888 -5.84375e-09
-3.01912e-09 0.00875888 -5.78358e-09
-2.85052e-09 0.00875888 -5.80077e-09
-2.67551e-09 0.00875888 -5.87735e-09
-2.46208e-09 0.00875888 -5.79665e-09
-2.18533e-09 0.00875888 -5.85113e-09
-3.09132e-09 0.00875888 -5.74043e-09
-2.80573e-09 0.00875888 -5.87858e-09
-2.73223e-09 0.00875888 -5.86774e-09
-2.47736e-09 0.00875888 -5.81822e-09
-2.23457e-09 0.00875888 -5.83001e-09
-3.69391e-09 0.0100095 -6.48456e-09
-3.5312e-09 0.0100095 -6.2242e-09
-3.10982e-09 0.0100095 -6.41009e-09
-3.07093e-09 0.0100095 -6.29535e-09
-2.56082e-09 0.0100095 -6.36825e-09
-3.79168e-09 0.0100095 -6.24797e-09
-3.42898e-09 0.0100095 -6.21876e-09
-3.16848e-09 0.0100095 -6.31503e-09
-3.04418e-09 0.0100095 -6.36487e-09
-2.70576e-09 0.0100095 -6.29988e-09
-3.70632e-09 0.0100095 -6.30186e-09
-3.48319e-09 0.0100095 -6.2814e-09
-3.11461e-09 0.0100095 -6.39859e-09
-3.0826e-09 0.0100095 -6.32072e-09
-2.56305e-09 0.0100095 -6.3048e-09
-3.53577e-09 0.0100095 -6.23869e-09
-3.45286e-09 0.0100095 -6.27634e-09
-3.22288e-09 0.0100095 -6.29213e-09
-3.00382e-09 0.0100095 -6.32018e-09
-2.72486e-09 0.0100095 -6.2484e-09
-3.354e-09 0.0100095 -6.30897e-09
-3.56515e-09 0.0100095 -6.27715e-09
-3.2023e-09 0.0100095 -6.29065e-09
-3.09332e-09 0.0100095 -6.24152e-09
-2.73259e-09 0.0100095 -6.27327e-09
-4.06721e-09 0.01126 -6.72925e-09
-4.00479e-09 0.01126 -6.84775e-09
-3.78763e-09 0.01126 -6.83091e-09
-3.63323e-09 0.01126 -6.86831e-09
-3.6771e-09 0.01126 -6.93334e-09
-4.23505e-09 0.01126 -6.82811e-09
-4.0751e-09 0.01126 -6.77932e-09
-3.84826e-09 0.01126 -6.82089e-09
-3.63354e-09 0.01126 -6.89521e-09
-3.38433e-09 0.01126 -6.86239e-09
-4.27666e-09 0.01126 -6.77592e-09
-4.06796e-09 0.01126 -6.85725e-09
-3.83028e-09 0.01126 -6.82858e-09
-3.56378e-09 0.01126 -6.79007e-09
-3.22822e-09 0.01126 -6.64951e-09
-4.2158e-09 0.01126 -6.85438e-09
-4.00094e-09 0.01126 -6.75654e-09
-3.75918e-09 0.01126 -6.77568e-09
-3.58303e-09 0.01126 -6.59598e-09
-3.42074e-09 0.01126 -6.67902e-09
-4.17995e-09 0.01126 -6.95964e-09
-3.89734e-09 0.01126 -6.87934e-09
-3.77146e-09 0.01126 -6.78343e-09
-3.64952e-09 0.01126 -6.65278e-09
-3.56863e-09 0.01126 -6.71131e-09
-4.99931e-09 0.0125102 -6.93431e-09
-4.7396e-09 0.0125102 -7.05912e-09
-4.58061e-09 0.0125102 -7.47177e-09
-4.3191e-09 0.0125102 -7.45604e-09
-3.80868e-09 0.0125102 -7.11342e-09
-4.97437e-09 0.0125102 -7.12354e-09
-4.66476e-09 0.0125102 -7.1422e-09
-4.43919e-09 0.0125102 -7.22288e-09
-4.33654e-09 0.0125102 -7.36571e-09
-3.77249e-09 0.0125102 -7.27079e-09
-5.00743e-09 0.0125102 -7.28828e-09
-4.7514e-09 0.0125102 -7.18918e-09
-4.48551e-09 0.0125102 -7.16174e-09
-4.21933e-09 0.0125102 -7.01947e-09
-3.8926e-09 0.0125102 -7.15264e-09
-4.84359e-09 0.0125102 -7.29622e-09
-4.70309e-09 0.0125102 -7.36336e-09
-4.42087e-09 0.0125102 -7.1429e-09
-4.19606e-09 0.0125102 -7.20576e-09
-3.96958e-09 0.0125102 -6.95916e-09
-4.78911e-09 0.0125102 -7.32435e-09
-4.59123e-09 0.0125102 -7.24418e-09
-4.32684e-09 0.0125102 -7.34641e-09
-4.45184e-09 0.0125102 -6.91488e-09
-3.93815e-09 0.0125102 -7.06483e-09
-5.19182e-09 0.0137602 -7.37817e-09
-5.36933e-09 0.0137602 -7.50691e-09
-5.20387e-09 0.0137602 -7.5594e-09
-4.95847e-09 0.0137602 -7.41222e-09
-4.56499e-09 0.0137602 -7.41053e-09
-5.43433e-09 0.0137602 -7.40852e-09
-5.33451e-09 0.0137602 -7.41754e-09
-5.19014e-09 0.0137602 -7.58096e-09
-4.87196e-09 0.0137602 -7.39551e-09
-4.72396e-09 0.0137602 -7.48715e-09
-5.62816e-09 0.0137602 -7.49527e-09
-5.29068e-09 0.0137602 -7.47687e-09
-5.13835e-09 0.0137602 -7.4005e-09
-5.01423e-09 0.0137602 -7.5058e-09
-4.51554e-09 0.0137602 -7.39441e-09
-5.59265e-09 0.0137602 -7.48244e-09
-5.33748e-09 0.0137602 -7.61252e-09
-5.10197e-09 0.0137602 -7.45519e-09
-4.83936e-09 0.0137602 -7.29227e-09
-4.69937e-09 0.0137602 -7.24376e-09
-5.49062e-09 0.0137602 -7.50344e-09
-5.43575e-09 0.0137602 -7.5989e-09
-5.14574e-09 0.0137602 -7.5778e-09
-4.63078e-09 0.0137602 -7.29338e-09
-5.18234e-09 0.0137602 -7.11133e-09
-5.97219e-09 0.01501 -7.91063e-09
-5.80623e-09 0.01501 -7.87466e-09
-5.62923e-09 0.01501 -7.73248e-09
-5.48366e-09 0.01501 -8.04771e-09
-5.61457e-09 0.01501 -7.69124e-09
-6.06487e-09 0.01501 -7.74581e-09
-5.93118e-09 0.01501 -7.74095e-09
-5.70993e-09 0.01501 -7.69798e-09
-5.61547e-09 0.01501 -7.75896e-09
-5.39814e-09 0.01501 -7.78986e-09
-6.03936e-09 0.01501 -7.64023e-09
-5.94652e-09 0.01501 -7.73904e-09
-5.69384e-09 0.01501 -7.79843e-09
-5.65593e-09 0.01501 -7.61773e-09
-5.37578e-09 0.01501 -7.58797e-09
-6.11267e-09 0.01501 -7.76763e-09
-6.02839e-09 0.01501 -7.67101e-09
-5.56151e-09 0.01501 -7.52917e-09
-5.5995e-09 0.01501 -7.55753e-09
-5.51046e-09 0.01501 -7.50621e-09
-5.91506e-09 0.01501 -7.6141e-09
-6.15386e-09 0.01501 -7.74779e-09
-5.57368e-09 0.01501 -7.51756e-09
-5.53804e-09 0.01501 -7.48295e-09
-5.73122e-09 0.01501 -7.53363e-09
-6.9808e-09 0.0162595 -7.93311e-09
-6.27651e-09 0.0162595 -8.02033e-09
-6.36238e-09 0.0162595 -8.12263e-09
-6.14823e-09 0.0162595 -8.25203e-09
-5.58803e-09 0.0162595 -8.08687e-09
-6.63748e-09 0.0162595 -7.94648e-09
-6.48171e-09 0.0162595 -8.10569e-09
-6.30335e-09 0.0162595 -8.15291e-09
-5.99178e-09 0.0162595 -8.08552e-09
-5.9572e-09 0.0162595 -8.02028e-09
-6.67578e-09 0.0162595 -7.92984e-09
-6.51666e-09 0.0162595 -7.97518e-09
-6.18824e-09 0.0162595 -7.95298e-09
-6.06e-09 0.0162595 -7.90264e-09
-6.05523e-09 0.0162595 -7.99486e-09
-6.95679e-09 0.0162595 -7.81134e-09
-6.35766e-09 0.0162595 -7.78148e-09
-6.0929e-09 0.0162595 -7.71412e-09
-6.17142e-09 0.0162595 -7.7977e-09
-6.14263e-09 0.0162595 -7.85442e-09
-6.9478e-09 0.0162595 -7.65828e-09
-6.37532e-09 0.0162595 -7.87306e-09
-6.12707e-09 0.0162595 -7.54634e-09
-6.15749e-09 0.0162595 -7.83611e-09
-5.96804e-09 0.0162595 -7.94181e-09
-6.80714e-09 0.0175089 -8.00233e-09
-6.85705e-09 0.0175089 -8.06581e-09
-6.79516e-09 0.0175089 -8.37198e-09
-6.41587e-09 0.0175089 -8.3385e-09
-6.50068e-09 0.0175089 -8.09921e-09
-6.91134e-09 0.0175089 -8.0715e-09
-6.93849e-09 0.0175089 -8.14891e-09
-6.74561e-09 0.0175089 -8.34148e-09
-6.6108e-09 0.0175089 -8.28344e-09
-6.30673e-09 0.0175089 -8.21229e-09
-7.34162e-09 0.0175089 -8.0315e-09
-6.8565e-09 0.0175089 -8.03732e-09
-6.6113e-09 0.0175089 -8.04198e-09
-6.5358e-09 0.0175089 -8.32282e-09
-6.611e-09 0.0175089 -8.2974e-09
-7.30246e-09 0.0175089 -7.82458e-09
-6.85344e-09 0.0175089 -7.76669e-09
-6.45392e-09 0.0175089 -7.94506e-09
-6.67949e-09 0.0175089 -8.19725e-09
-6.73583e-09 0.0175089 -8.07988e-09
-7.33682e-09 0.0175089 -7.49699e-09
-6.74934e-09 0.0175089 -7.90712e-09
-6.68281e-09 0.0175089 -7.86999e-09
-6.5816e-09 0.0175089 -7.98113e-09
-6.62342e-09 0.0175089 -7.90065e-09
-7.39698e-09 0.0187582 -8.42086e-09
-7.44488e-09 0.0187582 -8.58076e-09
-7.13906e-09 0.0187582 -8.52895e-09
-6.84797e-09 0.0187582 -8.48404e-09
-6.79094e-09 0.0187582 -8.18181e-09
-7.43554e-09 0.0187582 -8.3956e-09
-7.32203e-09 0.0187582 -8.3091e-09
-7.10093e-09 0.0187582 -8.38528e-09
-6.96591e-09 0.0187582 -8.38801e-09
-6.77334e-09 0.0187582 -8.45449e-09
-7.3835e-09 0.0187582 -8.17109e-09
-7.27581e-09 0.0187582 -8.1973e-09
-7.02866e-09 0.0187582 -8.38147e-09
-7.03104e-09 0.0187582 -8.55947e-09
-6.90829e-09 0.0187582 -8.65533e-09
-7.36155e-09 0.0187582 -7.95049e-09
-7.40571e-09 0.0187582 -8.03646e-09
-7.05041e-09 0.0187582 -8.11939e-09
-6.93295e-09 0.0187582 -8.50781e-09
-6.9817e-09 0.0187582 -8.45654e-09
-7.18859e-09 0.0187582 -8.2043e-09
-7.37951e-09 0.0187582 -8.00421e-09
-6.93836e-09 0.0187582 -7.90101e-09
-7.15003e-09 0.0187582 -8.59191e-09
-6.66145e-09 0.0187582 -8.03058e-09
-8.20451e-09 0.0200072 -8.61043e-09
-7.46558e-09 0.0200072 -8.49061e-09
-7.41628e-09 0.0200072 -8.34875e-09
-7.46777e-09 0.0200072 -8.55372e-09
-7.08127e-09 0.0200072 -8.35306e-09
-7.73286e-09 0.0200072 -8.62085e-09
-7.59915e-09 0.0200072 -8.46091e-09
-7.31802e-09 0.0200072 -8.39955e-09
-7.33692e-09 0.0200072 -8.58534e-09
-7.17718e-09 0.0200072 -8.61093e-09
-7.75264e-09 0.0200072 -8.29672e-09
-7.57896e-09 0.0200072 -8.41828e-09
-7.42952e-09 0.0200072 -8.53226e-09
-7.31136e-09 0.0200072 -8.66523e-09
-7.20642e-09 0.0200072 -8.65196e-09
-7.59293e-09 0.0200072 -8.534e-09
-7.74054e-09 0.0200072 -8.27978e-09
-7.43461e-09 0.0200072 -8.34199e-09
-7.4005e-09 0.0200072 -8.62734e-09
-7.07702e-09 0.0200072 -8.69976e-09
-7.45165e-09 0.0200072 -8.05485e-09
-7.46997e-09 0.0200072 -8.27538e-09
-7.84761e-09 0.0200072 -8.66606e-09
-7.05309e-09 0.0200072 -8.50217e-09
-7.24344e-09 0.0200072 -8.55758e-09
-8.11388e-09 0.0212562 -8.47248e-09
-7.87118e-09 0.0212562 -8.48521e-09
-7.54731e-09 0.0212562 -8.27316e-09
-7.94242e-09 0.0212562 -8.55561e-09
-7.85689e-09 0.0212562 -8.58667e-09
-7.70023e-09 0.0212562 -8.45136e-09
-7.82221e-09 0.0212562 -8.4884e-09
-7.69376e-09 0.0212562 -8.44181e-09
-7.81515e-09 0.0212562 -8.64697e-09
-7.43588e-09 0.0212562 -8.52472e-09
-7.70525e-09 0.0212562 -8.6955e-09
-7.71151e-09 0.0212562 -8.80913e-09
-7.80137e-09 0.0212562 -8.71329e-09
-7.50133e-09 0.0212562 -8.54021e-09
-7.77843e-09 0.0212562 -8.63294e-09
-7.64249e-09 0.0212562 -8.70791e-09
-7.90668e-09 0.0212562 -8.94609e-09
-7.68333e-09 0.0212562 -8.7905e-09
-7.57713e-09 0.0212562 -8.91203e-09
-7.39738e-09 0.0212562 -8.59184e-09
-7.68592e-09 0.0212562 -8.71952e-09
-7.92253e-09 0.0212562 -8.74494e-09
-7.36069e-09 0.0212562 -8.86494e-09
-7.26913e-09 0.0212562 -8.72639e-09
-8.36535e-09 0.0212562 -8.83004e-09
-8.27473e-09 0.022505 -8.24829e-09
-7.67734e-09 0.022505 -8.58447e-09
-7.53519e-09 0.022505 -8.60415e-09
-8.08411e-09 0.022505 -8.86676e-09
-7.91834e-09 0.022505 -8.5992e-09
-7.88145e-09 0.022505 -8.69113e-09
-7.8444e-09 0.022505 -8.83385e-09
-7.58174e-09 0.022505 -8.71225e-09
-7.8348e-09 0.022505 -8.50448e-09
-7.79811e-09 0.022505 -8.81393e-09
-7.8853e-09 0.022505 -8.81074e-09
-8.11753e-09 0.022505 -8.91323e-09
-7.64532e-09 0.022505 -8.8867e-09
-7.59878e-09 0.022505 -8.92714e-09
-7.54121e-09 0.022505 -8.68651e-09
-7.95845e-09 0.022505 -9.03662e-09
-8.08072e-09 0.022505 -9.05835e-09
-7.74981e-09 0.022505 -9.07855e-09
-7.31866e-09 0.022505 -8.98678e-09
-7.49205e-09 0.022505 -8.94816e-09
-8.54427e-09 0.022505 -8.84188e-09
-7.95656e-09 0.022505 -9.28269e-09
-7.54748e-09 0.022505 -8.92141e-09
-7.58395e-09 0.022505 -9.18289e-09
-7.4213e-09 0.022505 -8.8646e-09
-8.13837e-09 0.0237538 -8.83289e-09
-7.64335e-09 0.0237538 -8.47501e-09
-7.67463e-09 0.0237538 -8.85525e-09
-7.55798e-09 0.0237538 -8.94155e-09
-7.45589e-09 0.0237538 -8.96583e-09
-7.79759e-09 0.0237538 -8.52012e-09
-7.72558e-09 0.0237538 -8.72408e-09
-7.30359e-09 0.0237538 -8.90018e-09
-7.54075e-09 0.0237538 -8.83395e-09
-7.30392e-09 0.0237538 -8.94802e-09
-8.29433e-09 0.0237538 -8.73636e-09
-7.5786e-09 0.0237538 -8.79943e-09
-7.51307e-09 0.0237538 -8.88572e-09
-7.41096e-09 0.0237538 -8.7199e-09
-7.19631e-09 0.0237538 -8.92764e-09
-8.08162e-09 0.0237538 -8.57089e-09
-7.95119e-09 0.0237538 -8.82503e-09
-7.57357e-09 0.0237538 -8.60981e-09
-7.25666e-09 0.0237538 -8.88239e-09
-6.74662e-09 0.0237538 -8.76592e-09
-8.07876e-09 0.0237538 -8.59518e-09
-8.20221e-09 0.0237538 -8.80851e-09
-7.4197e-09 0.0237538 -9.2221e-09
-7.37277e-09 0.0237538 -8.86099e-09
-6.63575e-09 0.0237538 -8.8787e-09
-7.65953e-09 0.0250026 -8.16649e-09
-7.399e-09 0.0250026 -8.32734e-09
-7.31982e-09 0.0250026 -8.36895e-09
-7.5824e-09 0.0250026 -8.16987e-09
-6.73324e-09 0.0250026 -8.6919e-09
-7.48908e-09 0.0250026 -8.38396e-09
-7.43188e-09 0.0250026 -8.25885e-09
-7.29833e-09 0.0250026 -8.47329e-09
-7.28815e-09 0.0250026 -8.49463e-09
-7.04872e-09 0.0250026 -8.67355e-09
-7.54321e-09 0.0250026 -8.31464e-09
-7.65588e-09 0.0250026 -8.31503e-09
-7.25445e-09 0.0250026 -8.27859e-09
-7.15711e-09 0.0250026 -8.56745e-09
-7.11867e-09 0.0250026 -8.44936e-09
-7.60761e-09 0.0250026 -8.19725e-09
-7.6649e-09 0.0250026 -8.39836e-09
-7.54637e-09 0.0250026 -8.26032e-09
-7.16219e-09 0.0250026 -7.92318e-09
-6.72267e-09 0.0250026 -8.31886e-09
-7.99065e-09 0.0250026 -8.62992e-09
-7.79865e-09 0.0250026 -8.29825e-09
-7.49749e-09 0.0250026 -8.2025e-09
-7.17028e-09 0.0250026 -8.10633e-09
-6.4386e-09 0.0250026 -7.94097e-09
-7.24026e-09 0.0262514 -7.78113e-09
-7.38074e-09 0.0262514 -8.1689e-09
-6.5025e-09 0.0262514 -7.97561e-09
-7.09252e-09 0.0262514 -7.99964e-09
-6.88963e-09 0.0262514 -7.78875e-09
-7.34277e-09 0.0262514 -7.56908e-09
-7.10705e-09 0.0262514 -7.95421e-09
-6.9437e-09 0.0262514 -7.91521e-09
-6.99738e-09 0.0262514 -7.96872e-09
-7.0713e-09 0.0262514 -7.71456e-09
-7.43688e-09 0.0262514 -7.99389e-09
-7.09135e-09 0.0262514 -7.78738e-09
-7.16027e-09 0.0262514 -7.67579e-09
-7.04599e-09 0.0262514 -7.79853e-09
-6.31155e-09 0.0262514 -7.97326e-09
-7.31837e-09 0.0262514 -7.5579e-09
-7.25441e-09 0.0262514 -7.72732e-09
-7.10072e-09 0.0262514 -7.61787e-09
-7.00841e-09 0.0262514 -7.64482e-09
-6.51298e-09 0.0262514 -7.46402e-09
-7.36289e-09 0.0262514 -7.32235e-09
-7.22685e-09 0.0262514 -7.94001e-09
-7.01092e-09 0.0262514 -7.7227e-09
-6.73534e-09 0.0262514 -7.36093e-09
-6.87057e-09 0.0262514 -6.74832e-09
-6.9858e-09 0.0275001 -7.46337e-09
-6.40704e-09 0.0275001 -7.23398e-09
-6.64854e-09 0.0275001 -7.66826e-09
-6.47395e-09 0.0275001 -7.11792e-09
-6.39367e-09 0.0275001 -6.86712e-09
-6.90022e-09 0.0275001 -7.25499e-09
-6.66515e-09 0.0275001 -7.44049e-09
-6.58166e-09 0.0275001 -7.47717e-09
-6.50408e-09 0.0275001 -7.14972e-09
-6.27977e-09 0.0275001 -7.04901e-09
-6.75358e-09 0.0275001 -7.19227e-09
-6.65681e-09 0.0275001 -7.06957e-09
-6.65571e-09 0.0275001 -7.25016e-09
-6.67677e-09 0.0275001 -7.06482e-09
-6.0572e-09 0.0275001 -6.69029e-09
-6.95477e-09 0.0275001 -7.12294e-09
-6.70642e-09 0.0275001 -6.86237e-09
-6.66953e-09 0.0275001 -6.83711e-09
-6.55264e-09 0.0275001 -6.76561e-09
-6.32695e-09 0.0275001 -6.6422e-09
-5.95225e-09 0.0275001 -6.89303e-09
-6.98233e-09 0.0275001 -7.0383e-09
-6.56741e-09 0.0275001 -6.81636e-09
-6.40561e-09 0.0275001 -6.50008e-09
-6.92897e-09 0.0275001 -6.25549e-09
-6.75926e-09 0.0287489 -6.35258e-09
-6.23551e-09 0.0287489 -6.38931e-09