<?xml version="1.0"?>
<VTKFile type="UnstructuredGrid" version="0.1" byte_order="LittleEndian">
<UnstructuredGrid>
<Piece NumberOfPoints="1025" NumberOfCells="640">
<Points>
<DataArray type="Float32" NumberOfComponents="3" format="ascii">
0 0 0
0.025 0 0
0.05 0 0
0.075 0 0
0.1 0 0
0 0.025 0
0.025 0.025 0
0.05 0.025 0
0.075 0.025 0
0.1 0.025 0
0 0.05 0
0.025 0.05 0
0.05 0.05 0
0.075 0.05 0
0.1 0.05 0
0 0.075 0
0.025 0.075 0
0.05 0.075 0
0.075 0.075 0
0.1 0.075 0
0 0.1 0
0.025 0.1 0
0.05 0.1 0
0.075 0.1 0
0.1 0.1 0
0 0 0.025
0.025 0 0.025
0.05 0 0.025
0.075 0 0.025
0.1 0 0.025
0 0.025 0.025
0.025 0.025 0.025
0.05 0.025 0.025
0.075 0.025 0.025
0.1 0.025 0.025
0 0.05 0.025
0.025 0.05 0.025
0.05 0.05 0.025
0.075 0.05 0.025
0.1 0.05 0.025
0 0.075 0.025
0.025 0.075 0.025
0.05 0.075 0.025
0.075 0.075 0.025
0.1 0.075 0.025
0 0.1 0.025
0.025 0.1 0.025
0.05 0.1 0.025
0.075 0.1 0.025
0.1 0.1 0.025
0 0 0.05
0.025 0 0.05
0.05 0 0.05
0.075 0 0.05
0.1 0 0.05
0 0.025 0.05
0.025 0.025 0.05
0.05 0.025 0.05
0.075 0.025 0.05
0.1 0.025 0.05
0 0.05 0.05
0.025 0.05 0.05
0.05 0.05 0.05
0.075 0.05 0.05
0.1 0.05 0.05
0 0.075 0.05
0.025 0.075 0.05
0.05 0.075 0.05
0.075 0.075 0.05
0.1 0.075 0.05
0 0.1 0.05
0.025 0.1 0.05
0.05 0.1 0.05
0.075 0.1 0.05
0.1 0.1 0.05
0 0 0.075
0.025 0 0.075
0.05 0 0.075
0.075 0 0.075
0.1 0 0.075
0 0.025 0.075
0.025 0.025 0.075
0.05 0.025 0.075
0.075 0.025 0.075
0.1 0.025 0.075
0 0.05 0.075
0.025 0.05 0.075
0.05 0.05 0.075
0.075 0.05 0.075
0.1 0.05 0.075
0 0.075 0.075
0.025 0.075 0.075
0.05 0.075 0.075
0.075 0.075 0.075
0.1 0.075 0.075
0 0.1 0.075
0.025 0.1 0.075
0.05 0.1 0.075
0.075 0.1 0.075
0.1 0.1 0.075
0 0 0.1
0.025 0 0.1
0.05 0 0.1
0.075 0 0.1
0.1 0 0.1
0 0.025 0.1
0.025 0.025 0.1
0.05 0.025 0.1
0.075 0.025 0.1
0.1 0.025 0.1
0 0.05 0.1
0.025 0.05 0.1
0.05 0.05 0.1
0.075 0.05 0.1
0.1 0.05 0.1
0 0.075 0.1
0.025 0.075 0.1
0.05 0.075 0.1
0.075 0.075 0.1
0.1 0.075 0.1
0 0.1 0.1
0.025 0.1 0.1
0.05 0.1 0.1
0.075 0.1 0.1
0.1 0.1 0.1
0 0 0.125
0.025 0 0.125
0.05 0 0.125
0.075 0 0.125
0.1 0 0.125
0 0.025 0.125
0.025 0.025 0.125
0.05 0.025 0.125
0.075 0.025 0.125
0.1 0.025 0.125
0 0.05 0.125
0.025 0.05 0.125
0.05 0.05 0.125
0.075 0.05 0.125
0.1 0.05 0.125
0 0.075 0.125
0.025 0.075 0.125
0.05 0.075 0.125
0.075 0.075 0.125
0.1 0.075 0.125
0 0.1 0.125
0.025 0.1 0.125
0.05 0.1 0.125
0.075 0.1 0.125
0.1 0.1 0.125
0 0 0.15
0.025 0 0.15
0.05 0 0.15
0.075 0 0.15
0.1 0 0.15
0 0.025 0.15
0.025 0.025 0.15
0.05 0.025 0.15
0.075 0.025 0.15
0.1 0.025 0.15
0 0.05 0.15
0.025 0.05 0.15
0.05 0.05 0.15
0.075 0.05 0.15
0.1 0.05 0.15
0 0.075 0.15
0.025 0.075 0.15
0.05 0.075 0.15
0.075 0.075 0.15
0.1 0.075 0.15
0 0.1 0.15
0.025 0.1 0.15
0.05 0.1 0.15
0.075 0.1 0.15
0.1 0.1 0.15
0 0 0.175
0.025 0 0.175
0.05 0 0.175
0.075 0 0.175
0.1 0 0.175
0 0.025 0.175
0.025 0.025 0.175
0.05 0.025 0.175
0.075 0.025 0.175
0.1 0.025 0.175
0 0.05 0.175
0.025 0.05 0.175
0.05 0.05 0.175
0.075 0.05 0.175
0.1 0.05 0.175
0 0.075 0.175
0.025 0.075 0.175
0.05 0.075 0.175
0.075 0.075 0.175
0.1 0.075 0.175
0 0.1 0.175
0.025 0.1 0.175
0.05 0.1 0.175
0.075 0.1 0.175
0.1 0.1 0.175
0 0 0.2
0.025 0 0.2
0.05 0 0.2
0.075 0 0.2
0.1 0 0.2
0 0.025 0.2
0.025 0.025 0.2
0.05 0.025 0.2
0.075 0.025 0.2
0.1 0.025 0.2
0 0.05 0.2
0.025 0.05 0.2
0.05 0.05 0.2
0.075 0.05 0.2
0.1 0.05 0.2
0 0.075 0.2
0.025 0.075 0.2
0.05 0.075 0.2
0.075 0.075 0.2
0.1 0.075 0.2
0 0.1 0.2
0.025 0.1 0.2
0.05 0.1 0.2
0.075 0.1 0.2
0.1 0.1 0.2
0 0 0.225
0.025 0 0.225
0.05 0 0.225
0.075 0 0.225
0.1 0 0.225
0 0.025 0.225
0.025 0.025 0.225
0.05 0.025 0.225
0.075 0.025 0.225
0.1 0.025 0.225
0 0.05 0.225
0.025 0.05 0.225
0.05 0.05 0.225
0.075 0.05 0.225
0.1 0.05 0.225
0 0.075 0.225
0.025 0.075 0.225
0.05 0.075 0.225
0.075 0.075 0.225
0.1 0.075 0.225
0 0.1 0.225
0.025 0.1 0.225
0.05 0.1 0.225
0.075 0.1 0.225
0.1 0.1 0.225
0 0 0.25
0.025 0 0.25
0.05 0 0.25
0.075 0 0.25
0.1 0 0.25
0 0.025 0.25
0.025 0.025 0.25
0.05 0.025 0.25
0.075 0.025 0.25
0.1 0.025 0.25
0 0.05 0.25
0.025 0.05 0.25
0.05 0.05 0.25
0.075 0.05 0.25
0.1 0.05 0.25
0 0.075 0.25
0.025 0.075 0.25
0.05 0.075 0.25
0.075 0.075 0.25
0.1 0.075 0.25
0 0.1 0.25
0.025 0.1 0.25
0.05 0.1 0.25
0.075 0.1 0.25
0.1 0.1 0.25
0 0 0.275
0.025 0 0.275
0.05 0 0.275
0.075 0 0.275
0.1 0 0.275
0 0.025 0.275
0.025 0.025 0.275
0.05 0.025 0.275
0.075 0.025 0.275
0.1 0.025 0.275
0 0.05 0.275
0.025 0.05 0.275
0.05 0.05 0.275
0.075 0.05 0.275
0.1 0.05 0.275
0 0.075 0.275
0.025 0.075 0.275
0.05 0.075 0.275
0.075 0.075 0.275
0.1 0.075 0.275
0 0.1 0.275
0.025 0.1 0.275
0.05 0.1 0.275
0.075 0.1 0.275
0.1 0.1 0.275
0 0 0.3
0.025 0 0.3
0.05 0 0.3
0.075 0 0.3
0.1 0 0.3
0 0.025 0.3
0.025 0.025 0.3
0.05 0.025 0.3
0.075 0.025 0.3
0.1 0.025 0.3
0 0.05 0.3
0.025 0.05 0.3
0.05 0.05 0.3
0.075 0.05 0.3
0.1 0.05 0.3
0 0.075 0.3
0.025 0.075 0.3
0.05 0.075 0.3
0.075 0.075 0.3
0.1 0.075 0.3
0 0.1 0.3
0.025 0.1 0.3
0.05 0.1 0.3
0.075 0.1 0.3
0.1 0.1 0.3
0 0 0.325
0.025 0 0.325
0.05 0 0.325
0.075 0 0.325
0.1 0 0.325
0 0.025 0.325
0.025 0.025 0.325
0.05 0.025 0.325
0.075 0.025 0.325
0.1 0.025 0.325
0 0.05 0.325
0.025 0.05 0.325
0.05 0.05 0.325
0.075 0.05 0.325
0.1 0.05 0.325
0 0.075 0.325
0.025 0.075 0.325
0.05 0.075 0.325
0.075 0.075 0.325
0.1 0.075 0.325
0 0.1 0.325
0.025 0.1 0.325
0.05 0.1 0.325
0.075 0.1 0.325
0.1 0.1 0.325
0 0 0.35
0.025 0 0.35
0.05 0 0.35
0.075 0 0.35
0.1 0 0.35
0 0.025 0.35
0.025 0.025 0.35
0.05 0.025 0.35
0.075 0.025 0.35
0.1 0.025 0.35
0 0.05 0.35
0.025 0.05 0.35
0.05 0.05 0.35
0.075 0.05 0.35
0.1 0.05 0.35
0 0.075 0.35
0.025 0.075 0.35
0.05 0.075 0.35
0.075 0.075 0.35
0.1 0.075 0.35
0 0.1 0.35
0.025 0.1 0.35
0.05 0.1 0.35
0.075 0.1 0.35
0.1 0.1 0.35
0 0 0.375
0.025 0 0.375
0.05 0 0.375
0.075 0 0.375
0.1 0 0.375
0 0.025 0.375
0.025 0.025 0.375
0.05 0.025 0.375
0.075 0.025 0.375
0.1 0.025 0.375
0 0.05 0.375
0.025 0.05 0.375
0.05 0.05 0.375
0.075 0.05 0.375
0.1 0.05 0.375
0 0.075 0.375
0.025 0.075 0.375
0.05 0.075 0.375
0.075 0.075 0.375
0.1 0.075 0.375
0 0.1 0.375
0.025 0.1 0.375
0.05 0.1 0.375
0.075 0.1 0.375
0.1 0.1 0.375
0 0 0.4
0.025 0 0.4
0.05 0 0.4
0.075 0 0.4
0.1 0 0.4
0 0.025 0.4
0.025 0.025 0.4
0.05 0.025 0.4
0.075 0.025 0.4
0.1 0.025 0.4
0 0.05 0.4
0.025 0.05 0.4
0.05 0.05 0.4
0.075 0.05 0.4
0.1 0.05 0.4
0 0.075 0.4
0.025 0.075 0.4
0.05 0.075 0.4
0.075 0.075 0.4
0.1 0.075 0.4
0 0.1 0.4
0.025 0.1 0.4
0.05 0.1 0.4
0.075 0.1 0.4
0.1 0.1 0.4
0 0 0.425
0.025 0 0.425
0.05 0 0.425
0.075 0 0.425
0.1 0 0.425
0 0.025 0.425
0.025 0.025 0.425
0.05 0.025 0.425
0.075 0.025 0.425
0.1 0.025 0.425
0 0.05 0.425
0.025 0.05 0.425
0.05 0.05 0.425
0.075 0.05 0.425
0.1 0.05 0.425
0 0.075 0.425
0.025 0.075 0.425
0.05 0.075 0.425
0.075 0.075 0.425
0.1 0.075 0.425
0 0.1 0.425
0.025 0.1 0.425
0.05 0.1 0.425
0.075 0.1 0.425
0.1 0.1 0.425
0 0 0.45
0.025 0 0.45
0.05 0 0.45
0.075 0 0.45
0.1 0 0.45
0 0.025 0.45
0.025 0.025 0.45
0.05 0.025 0.45
0.075 0.025 0.45
0.1 0.025 0.45
0 0.05 0.45
0.025 0.05 0.45
0.05 0.05 0.45
0.075 0.05 0.45
0.1 0.05 0.45
0 0.075 0.45
0.025 0.075 0.45
0.05 0.075 0.45
0.075 0.075 0.45
0.1 0.075 0.45
0 0.1 0.45
0.025 0.1 0.45
0.05 0.1 0.45
0.075 0.1 0.45
0.1 0.1 0.45
0 0 0.475
0.025 0 0.475
0.05 0 0.475
0.075 0 0.475
0.1 0 0.475
0 0.025 0.475
0.025 0.025 0.475
0.05 0.025 0.475
0.075 0.025 0.475
0.1 0.025 0.475
0 0.05 0.475
0.025 0.05 0.475
0.05 0.05 0.475
0.075 0.05 0.475
0.1 0.05 0.475
0 0.075 0.475
0.025 0.075 0.475
0.05 0.075 0.475
0.075 0.075 0.475
0.1 0.075 0.475
0 0.1 0.475
0.025 0.1 0.475
0.05 0.1 0.475
0.075 0.1 0.475
0.1 0.1 0.475
0 0 0.5
0.025 0 0.5
0.05 0 0.5
0.075 0 0.5
0.1 0 0.5
0 0.025 0.5
0.025 0.025 0.5
0.05 0.025 0.5
0.075 0.025 0.5
0.1 0.025 0.5
0 0.05 0.5
0.025 0.05 0.5
0.05 0.05 0.5
0.075 0.05 0.5
0.1 0.05 0.5
0 0.075 0.5
0.025 0.075 0.5
0.05 0.075 0.5
0.075 0.075 0.5
0.1 0.075 0.5
0 0.1 0.5
0.025 0.1 0.5
0.05 0.1 0.5
0.075 0.1 0.5
0.1 0.1 0.5
0 0 0.525
0.025 0 0.525
0.05 0 0.525
0.075 0 0.525
0.1 0 0.525
0 0.025 0.525
0.025 0.025 0.525
0.05 0.025 0.525
0.075 0.025 0.525
0.1 0.025 0.525
0 0.05 0.525
0.025 0.05 0.525
0.05 0.05 0.525
0.075 0.05 0.525
0.1 0.05 0.525
0 0.075 0.525
0.025 0.075 0.525
0.05 0.075 0.525
0.075 0.075 0.525
0.1 0.075 0.525
0 0.1 0.525
0.025 0.1 0.525
0.05 0.1 0.525
0.075 0.1 0.525
0.1 0.1 0.525
0 0 0.55
0.025 0 0.55
0.05 0 0.55
0.075 0 0.55
0.1 0 0.55
0 0.025 0.55
0.025 0.025 0.55
0.05 0.025 0.55
0.075 0.025 0.55
0.1 0.025 0.55
0 0.05 0.55
0.025 0.05 0.55
0.05 0.05 0.55
0.075 0.05 0.55
0.1 0.05 0.55
0 0.075 0.55
0.025 0.075 0.55
0.05 0.075 0.55
0.075 0.075 0.55
0.1 0.075 0.55
0 0.1 0.55
0.025 0.1 0.55
0.05 0.1 0.55
0.075 0.1 0.55
0.1 0.1 0.55
0 0 0.575
0.025 0 0.575
0.05 0 0.575
0.075 0 0.575
0.1 0 0.575
0 0.025 0.575
0.025 0.025 0.575
0.05 0.025 0.575
0.075 0.025 0.575
0.1 0.025 0.575
0 0.05 0.575
0.025 0.05 0.575
0.05 0.05 0.575
0.075 0.05 0.575
0.1 0.05 0.575
0 0.075 0.575
0.025 0.075 0.575
0.05 0.075 0.575
0.075 0.075 0.575
0.1 0.075 0.575
0 0.1 0.575
0.025 0.1 0.575
0.05 0.1 0.575
0.075 0.1 0.575
0.1 0.1 0.575
0 0 0.6
0.025 0 0.6
0.05 0 0.6
0.075 0 0.6
0.1 0 0.6
0 0.025 0.6
0.025 0.025 0.6
0.05 0.025 0.6
0.075 0.025 0.6
0.1 0.025 0.6
0 0.05 0.6
0.025 0.05 0.6
0.05 0.05 0.6
0.075 0.05 0.6
0.1 0.05 0.6
0 0.075 0.6
0.025 0.075 0.6
0.05 0.075 0.6
0.075 0.075 0.6
0.1 0.075 0.6
0 0.1 0.6
0.025 0.1 0.6
0.05 0.1 0.6
0.075 0.1 0.6
0.1 0.1 0.6
0 0 0.625
0.025 0 0.625
0.05 0 0.625
0.075 0 0.625
0.1 0 0.625
0 0.025 0.625
0.025 0.025 0.625
0.05 0.025 0.625
0.075 0.025 0.625
0.1 0.025 0.625
0 0.05 0.625
0.025 0.05 0.625
0.05 0.05 0.625
0.075 0.05 0.625
0.1 0.05 0.625
0 0.075 0.625
0.025 0.075 0.625
0.05 0.075 0.625
0.075 0.075 0.625
0.1 0.075 0.625
0 0.1 0.625
0.025 0.1 0.625
0.05 0.1 0.625
0.075 0.1 0.625
0.1 0.1 0.625
0 0 0.65
0.025 0 0.65
0.05 0 0.65
0.075 0 0.65
0.1 0 0.65
0 0.025 0.65
0.025 0.025 0.65
0.05 0.025 0.65
0.075 0.025 0.65
0.1 0.025 0.65
0 0.05 0.65
0.025 0.05 0.65
0.05 0.05 0.65
0.075 0.05 0.65
0.1 0.05 0.65
0 0.075 0.65
0.025 0.075 0.65
0.05 0.075 0.65
0.075 0.075 0.65
0.1 0.075 0.65
0 0.1 0.65
0.025 0.1 0.65
0.05 0.1 0.65
0.075 0.1 0.65
0.1 0.1 0.65
0 0 0.675
0.025 0 0.675
0.05 0 0.675
0.075 0 0.675
0.1 0 0.675
[...]
<PointData Vectors="Displacement">
<DataArray type="Float32" Name="Displacement" NumberOfComponents="3" format="ascii">
0 0 0
0 0 0
0 0 0
0 0 0
0 0 0
0 0 0
0 0 0
0 0 0
0 0 0
0 0 0
0 0 0
0 0 0
0 0 0
0 0 0
0 0 0
0 0 0
0 0 0
0 0 0
0 0 0
0 0 0
0 0 0
0 0 0
0 0 0
0 0 0
0 0 0
1.3244e-10 0.00130153 -1.12712e-09
3.23827e-10 0.00130153 -1.14212e-09
4.53173e-10 0.00130153 -1.15896e-09
5.8672e-10 0.00130153 -1.12041e-09
8.14487e-10 0.00130153 -1.14326e-09
9.94556e-11 0.00130153 -1.13957e-09
3.3305e-10 0.00130153 -1.13957e-09
4.67677e-10 0.00130153 -1.14933e-09
5.94693e-10 0.00130153 -1.13719e-09
8.64966e-10 0.00130153 -1.13281e-09
1.06163e-10 0.00130153 -1.14782e-09
3.30279e-10 0.00130153 -1.14577e-09
4.66181e-10 0.00130153 -1.15518e-09
6.106e-10 0.00130153 -1.12721e-09
8.38848e-10 0.00130153 -1.14599e-09
1.4055e-10 0.00130153 -1.13564e-09
3.36683e-10 0.00130153 -1.13678e-09
4.7834e-10 0.00130153 -1.12283e-09
6.00234e-10 0.00130153 -1.12338e-09
7.95789e-10 0.00130153 -1.12046e-09
1.58202e-10 0.00130153 -1.10414e-09
3.5631e-10 0.00130153 -1.12578e-09
4.66282e-10 0.00130153 -1.11947e-09
5.83547e-10 0.00130153 -1.0811e-09
8.02979e-10 0.00130153 -1.1057e-09
5.49636e-10 0.00260274 -2.341e-09
7.21505e-10 0.00260274 -2.30644e-09
9.31646e-10 0.00260274 -2.3528e-09
1.14e-09 0.00260274 -2.32746e-09
1.38663e-09 0.00260274 -2.33896e-09
4.73515e-10 0.00260275 -2.33209e-09
7.30636e-10 0.00260274 -2.32e-09
9.12769e-10 0.00260274 -2.30705e-09
1.15389e-09 0.00260274 -2.31603e-09
1.3917e-09 0.00260274 -2.31098e-09
4.5168e-10 0.00260274 -2.33696e-09
7.08848e-10 0.00260274 -2.33254e-09
9.37344e-10 0.00260274 -2.34891e-09
1.14206e-09 0.00260274 -2.30425e-09
1.42886e-09 0.00260274 -2.29269e-09
5.41229e-10 0.00260274 -2.31344e-09
7.27092e-10 0.00260274 -2.32024e-09
9.44357e-10 0.00260274 -2.30128e-09
1.11174e-09 0.00260274 -2.27744e-09
1.35685e-09 0.00260274 -2.29411e-09
5.58997e-10 0.00260275 -2.31849e-09
7.51906e-10 0.00260275 -2.32237e-09
9.01895e-10 0.00260274 -2.27453e-09
1.13537e-09 0.00260274 -2.26619e-09
1.26806e-09 0.00260274 -2.2747e-09
9.57024e-10 0.00390332 -3.54503e-09
1.15152e-09 0.00390332 -3.50811e-09
1.34942e-09 0.00390332 -3.44327e-09
1.58842e-09 0.00390332 -3.42694e-09
1.89796e-09 0.00390332 -3.45504e-09
8.94247e-10 0.00390332 -3.53153e-09
1.13607e-09 0.00390332 -3.50197e-09
1.39287e-09 0.00390332 -3.47941e-09
1.61043e-09 0.00390332 -3.43428e-09
1.92634e-09 0.00390332 -3.45847e-09
8.844e-10 0.00390332 -3.48329e-09
1.15002e-09 0.00390332 -3.47742e-09
1.38658e-09 0.00390332 -3.44877e-09
1.61978e-09 0.00390332 -3.44693e-09
1.91945e-09 0.00390332 -3.43937e-09
9.65998e-10 0.00390332 -3.51019e-09
1.16346e-09 0.00390332 -3.49152e-09
1.39898e-09 0.00390332 -3.47312e-09
1.60708e-09 0.00390332 -3.43407e-09
1.83032e-09 0.00390332 -3.42535e-09
9.35645e-10 0.00390332 -3.52958e-09
1.22968e-09 0.00390332 -3.44453e-09
1.40262e-09 0.00390332 -3.50322e-09
1.58051e-09 0.00390332 -3.4204e-09
1.78916e-09 0.00390332 -3.44012e-09
1.33442e-09 0.00520293 -4.72633e-09
1.60926e-09 0.00520293 -4.62336e-09
1.81114e-09 0.00520293 -4.5444e-09
1.98275e-09 0.00520293 -4.55819e-09
2.25377e-09 0.00520293 -4.56778e-09
1.29182e-09 0.00520293 -4.6697e-09
1.58468e-09 0.00520293 -4.66709e-09
1.84672e-09 0.00520293 -4.58899e-09
2.05113e-09 0.00520293 -4.53934e-09
2.35821e-09 0.00520293 -4.5658e-09
1.34216e-09 0.00520293 -4.67531e-09
1.57319e-09 0.00520293 -4.63903e-09
1.86241e-09 0.00520293 -4.6025e-09
2.06846e-09 0.00520293 -4.53784e-09
2.38878e-09 0.00520293 -4.55964e-09
1.35348e-09 0.00520293 -4.66622e-09
1.60639e-09 0.00520293 -4.6859e-09
1.81259e-09 0.00520293 -4.63671e-09
2.05468e-09 0.00520293 -4.58697e-09
2.36585e-09 0.00520293 -4.5764e-09
1.37403e-09 0.00520293 -4.7036e-09
1.61839e-09 0.00520293 -4.73663e-09
1.85358e-09 0.00520293 -4.70155e-09
2.06746e-09 0.00520293 -4.64406e-09
2.23192e-09 0.00520293 -4.63819e-09
1.84126e-09 0.00650129 -5.70843e-09
2.01856e-09 0.00650129 -5.83447e-09
2.21392e-09 0.00650129 -5.76909e-09
2.47792e-09 0.00650129 -5.59937e-09
2.72179e-09 0.00650129 -5.61254e-09
1.72355e-09 0.00650129 -5.77511e-09
2.0409e-09 0.00650129 -5.69921e-09
2.26085e-09 0.00650129 -5.66406e-09
2.45372e-09 0.00650129 -5.63229e-09
2.77142e-09 0.00650129 -5.61776e-09
1.72885e-09 0.00650129 -5.767e-09
2.02831e-09 0.00650129 -5.76502e-09
2.30925e-09 0.00650129 -5.64981e-09
2.47711e-09 0.00650129 -5.62295e-09
2.7715e-09 0.00650129 -5.59286e-09
1.73868e-09 0.00650129 -5.80484e-09
2.00006e-09 0.00650129 -5.75392e-09
2.29721e-09 0.00650129 -5.68404e-09
2.45897e-09 0.00650129 -5.61319e-09
2.73358e-09 0.00650129 -5.64556e-09
1.85326e-09 0.00650129 -5.79614e-09
1.96224e-09 0.00650129 -5.82044e-09
2.31085e-09 0.00650129 -5.68606e-09
2.47685e-09 0.00650129 -5.64479e-09
2.65216e-09 0.00650129 -5.58398e-09
2.2952e-09 0.00779808 -6.71773e-09
2.35312e-09 0.00779808 -6.81089e-09
2.66729e-09 0.00779808 -6.78616e-09
2.81738e-09 0.00779808 -6.81763e-09
3.23096e-09 0.00779808 -6.62141e-09
2.09704e-09 0.00779808 -6.79815e-09
2.38113e-09 0.00779808 -6.78464e-09
2.64695e-09 0.00779808 -6.83331e-09
2.86087e-09 0.00779808 -6.70249e-09
3.09548e-09 0.00779808 -6.74035e-09
2.15612e-09 0.00779808 -6.76645e-09
2.40875e-09 0.00779808 -6.75834e-09
2.6605e-09 0.00779808 -6.68401e-09
2.88031e-09 0.00779808 -6.72527e-09
3.01745e-09 0.00779808 -6.68224e-09
2.06672e-09 0.00779808 -6.76759e-09
2.40295e-09 0.00779808 -6.74201e-09
2.69286e-09 0.00779808 -6.70068e-09
2.88212e-09 0.00779808 -6.69859e-09
3.03321e-09 0.00779808 -6.69871e-09
2.00795e-09 0.00779808 -6.72695e-09
2.4113e-09 0.00779808 -6.76454e-09
2.76692e-09 0.00779808 -6.69035e-09
2.78779e-09 0.00779808 -6.67929e-09
3.08939e-09 0.00779808 -6.7946e-09
2.41544e-09 0.00909302 -7.68428e-09
2.67551e-09 0.00909302 -7.6449e-09
2.99432e-09 0.00909302 -7.71209e-09
3.3059e-09 0.00909302 -7.867e-09
3.40106e-09 0.00909302 -7.76221e-09
2.32553e-09 0.00909302 -7.73624e-09
2.68376e-09 0.00909302 -7.81194e-09
2.98808e-09 0.00909302 -7.7644e-09
3.23027e-09 0.00909302 -7.82188e-09
3.39557e-09 0.00909302 -7.74605e-09
2.41733e-09 0.00909302 -7.61584e-09
2.69445e-09 0.00909302 -7.69243e-09
3.01144e-09 0.00909302 -7.63359e-09
3.19844e-09 0.00909302 -7.71349e-09
3.38673e-09 0.00909302 -7.73562e-09
2.4509e-09 0.00909302 -7.59885e-09
2.74463e-09 0.00909302 -7.62389e-09
2.96236e-09 0.00909302 -7.66189e-09
3.17272e-09 0.00909302 -7.72667e-09
3.47139e-09 0.00909302 -7.77956e-09
2.49974e-09 0.00909302 -7.6721e-09
2.74433e-09 0.00909302 -7.64723e-09
2.92374e-09 0.00909302 -7.61334e-09
3.21582e-09 0.00909302 -7.77664e-09
3.37544e-09 0.00909302 -7.78105e-09
2.83574e-09 0.0103858 -8.55803e-09
2.85127e-09 0.0103858 -8.53121e-09
3.29032e-09 0.0103858 -8.70755e-09
3.37873e-09 0.0103858 -8.61485e-09
4.11106e-09 0.0103858 -8.57713e-09
2.59046e-09 0.0103858 -8.48037e-09
3.00915e-09 0.0103858 -8.49974e-09
3.27001e-09 0.0103858 -8.55131e-09
3.42624e-09 0.0103858 -8.52285e-09
3.99657e-09 0.0103858 -8.63356e-09
2.58786e-09 0.0103858 -8.54014e-09
2.98605e-09 0.0103858 -8.40839e-09
3.3302e-09 0.0103858 -8.65612e-09
3.39357e-09 0.0103858 -8.62811e-09
3.94308e-09 0.0103858 -8.64203e-09
2.87493e-09 0.0103858 -8.43923e-09
2.96838e-09 0.0103858 -8.45894e-09
3.21879e-09 0.0103858 -8.53813e-09
3.39646e-09 0.0103858 -8.50441e-09
3.63405e-09 0.0103858 -8.58081e-09
2.91189e-09 0.0103858 -8.5931e-09
2.8269e-09 0.0103858 -8.43583e-09
3.31585e-09 0.0103858 -8.56123e-09
3.43054e-09 0.0103858 -8.37692e-09
3.67919e-09 0.0103858 -8.55925e-09
3.08962e-09 0.0116762 -9.31257e-09
3.36578e-09 0.0116762 -9.4303e-09
3.41005e-09 0.0116762 -9.32826e-09
3.61597e-09 0.0116762 -9.30487e-09
4.01209e-09 0.0116762 -9.39253e-09
3.03443e-09 0.0116762 -9.28891e-09
3.16814e-09 0.0116762 -9.34846e-09
3.44121e-09 0.0116762 -9.36919e-09
3.68764e-09 0.0116762 -9.4853e-09
4.02704e-09 0.0116762 -9.34441e-09
3.05389e-09 0.0116762 -9.24501e-09
3.16923e-09 0.0116762 -9.30787e-09
3.45855e-09 0.0116762 -9.41626e-09
3.69068e-09 0.0116762 -9.36451e-09
3.97234e-09 0.0116762 -9.25777e-09
2.91028e-09 0.0116762 -9.46095e-09
3.22733e-09 0.0116762 -9.36614e-09
3.42149e-09 0.0116762 -9.30205e-09
3.77527e-09 0.0116762 -9.32521e-09
3.88959e-09 0.0116762 -9.27823e-09
3.0319e-09 0.0116762 -9.3597e-09
3.29758e-09 0.0116762 -9.43921e-09
3.53534e-09 0.0116762 -9.29324e-09
3.6472e-09 0.0116762 -9.36032e-09
3.69153e-09 0.0116762 -9.21979e-09
3.31136e-09 0.012964 -9.88419e-09
3.45049e-09 0.012964 -1.00663e-08
3.60011e-09 0.012964 -1.02248e-08
3.82941e-09 0.012964 -1.01828e-08
4.17645e-09 0.012964 -9.89545e-09
3.17116e-09 0.012964 -1.00281e-08
3.39723e-09 0.012964 -9.97319e-09
3.6358e-09 0.012964 -1.00978e-08
3.81665e-09 0.012964 -1.00729e-08
4.30917e-09 0.012964 -1.00494e-08
3.06259e-09 0.012964 -1.00337e-08
3.40383e-09 0.012964 -1.00181e-08
3.56623e-09 0.012964 -1.00219e-08
3.88209e-09 0.012964 -1.00675e-08
4.37267e-09 0.012964 -1.01655e-08
3.24884e-09 0.012964 -1.00719e-08
3.40102e-09 0.012964 -1.02258e-08
3.70135e-09 0.012964 -1.00723e-08
3.90077e-09 0.012964 -1.02046e-08
4.29713e-09 0.012964 -1.0179e-08
2.93539e-09 0.012964 -1.00019e-08
3.48402e-09 0.012964 -1.00545e-08
3.86733e-09 0.012964 -1.01936e-08
3.82362e-09 0.012964 -1.02813e-08
4.24105e-09 0.012964 -1.02219e-08
3.50317e-09 0.0142489 -1.0485e-08
3.41878e-09 0.0142489 -1.03976e-08
3.87786e-09 0.0142489 -1.07631e-08
4.06783e-09 0.0142489 -1.0414e-08
4.06027e-09 0.0142489 -1.02883e-08
3.27173e-09 0.0142489 -1.04953e-08
3.59258e-09 0.0142489 -1.06118e-08
3.77059e-09 0.0142489 -1.06085e-08
3.9916e-09 0.0142489 -1.05281e-08
4.31938e-09 0.0142489 -1.06465e-08
3.3295e-09 0.0142489 -1.06453e-08
3.63891e-09 0.0142489 -1.06922e-08
3.7288e-09 0.0142489 -1.07565e-08
3.87723e-09 0.0142489 -1.07818e-08
4.5209e-09 0.0142489 -1.06584e-08
3.18719e-09 0.0142489 -1.06943e-08
3.53224e-09 0.0142489 -1.06208e-08
3.75739e-09 0.0142489 -1.07447e-08
4.11393e-09 0.0142489 -1.07797e-08
4.39376e-09 0.0142489 -1.08502e-08
3.56448e-09 0.0142489 -1.05142e-08
3.4385e-09 0.0142489 -1.07282e-08
3.79795e-09 0.0142489 -1.08291e-08
4.41144e-09 0.0142489 -1.08155e-08
4.20927e-09 0.0142489 -1.09139e-08
3.81497e-09 0.0155307 -1.07713e-08
3.61826e-09 0.0155307 -1.1011e-08
3.81371e-09 0.0155307 -1.05752e-08
4.04458e-09 0.0155307 -1.13144e-08
4.073e-09 0.0155307 -1.11445e-08
3.51887e-09 0.0155307 -1.09297e-08
3.63389e-09 0.0155307 -1.09714e-08
3.79715e-09 0.0155307 -1.10851e-08
3.96253e-09 0.0155307 -1.11683e-08
4.19703e-09 0.0155307 -1.11711e-08
3.52086e-09 0.0155307 -1.11061e-08
3.61153e-09 0.0155307 -1.12505e-08
3.89558e-09 0.0155307 -1.12766e-08
3.92695e-09 0.0155307 -1.1194e-08
4.3726e-09 0.0155306 -1.1247e-08
3.33213e-09 0.0155307 -1.11387e-08
3.5664e-09 0.0155307 -1.12525e-08
3.95694e-09 0.0155306 -1.1067e-08
4.07003e-09 0.0155307 -1.13208e-08
4.27562e-09 0.0155306 -1.12897e-08
3.46675e-09 0.0155307 -1.13218e-08
3.63188e-09 0.0155307 -1.10659e-08
3.87981e-09 0.0155306 -1.12089e-08
4.05572e-09 0.0155306 -1.13521e-08
4.3041e-09 0.0155306 -1.13329e-08
3.67565e-09 0.0168091 -1.14378e-08
3.79975e-09 0.0168091 -1.156e-08
3.59405e-09 0.0168091 -1.1528e-08
3.71747e-09 0.0168091 -1.19461e-08
4.36382e-09 0.0168091 -1.17107e-08
3.76052e-09 0.0168091 -1.16179e-08
3.63364e-09 0.0168091 -1.1486e-08
3.70868e-09 0.0168091 -1.15972e-08
3.99647e-09 0.0168091 -1.17179e-08
4.04945e-09 0.0168091 -1.17396e-08
3.4026e-09 0.0168091 -1.16255e-08
3.59578e-09 0.0168091 -1.15669e-08
3.91718e-09 0.0168091 -1.16797e-08
4.086e-09 0.0168091 -1.16668e-08
3.93854e-09 0.0168091 -1.17509e-08
3.25074e-09 0.0168091 -1.16786e-08
3.74525e-09 0.0168091 -1.16138e-08
3.99628e-09 0.0168091 -1.16537e-08
4.03675e-09 0.0168091 -1.16744e-08
4.23269e-09 0.0168091 -1.17563e-08
3.25051e-09 0.0168091 -1.15621e-08
3.8076e-09 0.0168091 -1.16777e-08
3.99028e-09 0.0168091 -1.13176e-08
4.01385e-09 0.0168091 -1.15852e-08
4.40594e-09 0.0168091 -1.18315e-08
3.66218e-09 0.0180842 -1.23745e-08
3.86895e-09 0.0180842 -1.21601e-08
3.6546e-09 0.0180842 -1.23709e-08
3.7959e-09 0.0180842 -1.2398e-08
3.98863e-09 0.0180842 -1.21674e-08
3.91689e-09 0.0180842 -1.2137e-08
3.70362e-09 0.0180842 -1.2268e-08
3.71697e-09 0.0180842 -1.23343e-08
3.79792e-09 0.0180842 -1.21785e-08
3.92188e-09 0.0180842 -1.21255e-08
3.47289e-09 0.0180842 -1.2202e-08
3.6741e-09 0.0180842 -1.20684e-08
3.86405e-09 0.0180842 -1.18978e-08
3.93691e-09 0.0180842 -1.2313e-08
3.90757e-09 0.0180842 -1.22287e-08
3.27307e-09 0.0180842 -1.20486e-08
3.7804e-09 0.0180842 -1.20278e-08
4.11879e-09 0.0180842 -1.20094e-08
3.92065e-09 0.0180842 -1.22014e-08
3.93802e-09 0.0180842 -1.22663e-08
3.33156e-09 0.0180842 -1.20494e-08
3.801e-09 0.0180842 -1.23332e-08
4.02569e-09 0.0180842 -1.21839e-08
4.03525e-09 0.0180842 -1.20579e-08
3.99326e-09 0.0180842 -1.18947e-08
3.37378e-09 0.0193556 -1.2735e-08
3.45859e-09 0.0193556 -1.28944e-08
3.71155e-09 0.0193556 -1.30171e-08
3.70078e-09 0.0193556 -1.29251e-08
3.65489e-09 0.0193556 -1.26905e-08
3.55817e-09 0.0193556 -1.27697e-08
3.70495e-09 0.0193556 -1.27359e-08
3.76382e-09 0.0193556 -1.28787e-08
3.69211e-09 0.0193556 -1.27596e-08
3.61808e-09 0.0193556 -1.28715e-08
3.62621e-09 0.0193556 -1.25874e-08
3.61099e-09 0.0193556 -1.28658e-08
3.75957e-09 0.0193556 -1.27145e-08
3.69494e-09 0.0193556 -1.27924e-08
3.97353e-09 0.0193556 -1.30166e-08
3.54894e-09 0.0193556 -1.27377e-08
3.4778e-09 0.0193556 -1.25153e-08
3.73713e-09 0.0193556 -1.26829e-08
3.88527e-09 0.0193556 -1.28304e-08
3.9685e-09 0.0193556 -1.27726e-08
3.78007e-09 0.0193556 -1.26703e-08
3.5961e-09 0.0193556 -1.27748e-08
3.84192e-09 0.0193556 -1.25176e-08
3.7085e-09 0.0193556 -1.26522e-08
4.51038e-09 0.0193556 -1.25768e-08
3.04501e-09 0.0206232 -1.33694e-08
3.30287e-09 0.0206232 -1.3078e-08
3.49878e-09 0.0206232 -1.32016e-08
3.50229e-09 0.0206232 -1.35726e-08
3.92414e-09 0.0206232 -1.31821e-08
2.8491e-09 0.0206232 -1.33341e-08
3.49361e-09 0.0206232 -1.33021e-08
3.56462e-09 0.0206232 -1.33699e-08
3.60061e-09 0.0206232 -1.33746e-08
3.72751e-09 0.0206232 -1.3408e-08
3.48188e-09 0.0206232 -1.32595e-08
3.43469e-09 0.0206232 -1.32615e-08
3.66393e-09 0.0206232 -1.32438e-08
3.60075e-09 0.0206232 -1.34067e-08
4.01075e-09 0.0206232 -1.32655e-08
3.3762e-09 0.0206232 -1.33022e-08
3.40458e-09 0.0206232 -1.33091e-08
3.62867e-09 0.0206232 -1.31063e-08
3.54986e-09 0.0206232 -1.31628e-08
4.16145e-09 0.0206232 -1.33734e-08
3.31364e-09 0.0206232 -1.30522e-08
3.66699e-09 0.0206232 -1.33352e-08
3.23143e-09 0.0206232 -1.32964e-08
3.79416e-09 0.0206232 -1.31813e-08
3.93632e-09 0.0206232 -1.32792e-08
3.16435e-09 0.021887 -1.35087e-08
3.05927e-09 0.021887 -1.36494e-08
3.53695e-09 0.021887 -1.35263e-08
3.23163e-09 0.021887 -1.37474e-08
3.45295e-09 0.021887 -1.3933e-08
3.32746e-09 0.021887 -1.36486e-08
3.23689e-09 0.021887 -1.37212e-08
3.40883e-09 0.021887 -1.36261e-08
3.39099e-09 0.021887 -1.36533e-08
3.55007e-09 0.021887 -1.36466e-08
3.36533e-09 0.021887 -1.37302e-08
3.37033e-09 0.021887 -1.38218e-08
3.52735e-09 0.021887 -1.37443e-08
3.46249e-09 0.021887 -1.36213e-08
3.5109e-09 0.021887 -1.37146e-08
3.42996e-09 0.021887 -1.37769e-08
3.51941e-09 0.021887 -1.38468e-08
3.42171e-09 0.021887 -1.37295e-08
3.63867e-09 0.021887 -1.38399e-08
3.38632e-09 0.021887 -1.35886e-08
4.15708e-09 0.021887 -1.35421e-08
3.08913e-09 0.021887 -1.38477e-08
3.68188e-09 0.021887 -1.36682e-08
3.53993e-09 0.021887 -1.38456e-08
3.31497e-09 0.021887 -1.35614e-08
2.46933e-09 0.0231469 -1.40714e-08
3.24798e-09 0.0231469 -1.38775e-08
3.39725e-09 0.0231469 -1.41872e-08
3.24435e-09 0.0231469 -1.42067e-08
3.16532e-09 0.0231469 -1.42287e-08
2.98562e-09 0.0231469 -1.41117e-08
3.02095e-09 0.0231469 -1.43148e-08
3.52153e-09 0.0231469 -1.40297e-08
3.36368e-09 0.0231469 -1.41531e-08
3.57612e-09 0.0231469 -1.42596e-08
3.00321e-09 0.0231469 -1.40712e-08
3.18214e-09 0.0231469 -1.42482e-08
3.43253e-09 0.0231469 -1.44054e-08
3.4604e-09 0.0231469 -1.43272e-08
3.50991e-09 0.0231469 -1.40333e-08
3.57594e-09 0.0231469 -1.42155e-08
3.22088e-09 0.0231469 -1.4223e-08
3.31637e-09 0.0231469 -1.41778e-08
3.43606e-09 0.0231469 -1.43395e-08
3.52308e-09 0.0231469 -1.41565e-08
2.98723e-09 0.0231469 -1.40997e-08
3.36647e-09 0.0231469 -1.41435e-08
3.79477e-09 0.0231469 -1.42223e-08
3.45084e-09 0.0231469 -1.43732e-08
3.23652e-09 0.0231469 -1.44743e-08
3.09492e-09 0.0244027 -1.448e-08
2.96545e-09 0.0244027 -1.41138e-08
3.1015e-09 0.0244027 -1.46392e-08
3.33638e-09 0.0244027 -1.47211e-08
3.61439e-09 0.0244027 -1.49989e-08
2.92309e-09 0.0244027 -1.43127e-08
3.05921e-09 0.0244027 -1.45118e-08
3.47327e-09 0.0244027 -1.45985e-08
3.59569e-09 0.0244027 -1.46082e-08
3.58225e-09 0.0244027 -1.48247e-08
2.59005e-09 0.0244027 -1.45252e-08
3.2194e-09 0.0244027 -1.45037e-08
3.50709e-09 0.0244027 -1.46286e-08
3.48407e-09 0.0244027 -1.48229e-08
3.78557e-09 0.0244027 -1.47851e-08
3.10463e-09 0.0244027 -1.45288e-08
3.1374e-09 0.0244027 -1.45064e-08
3.29045e-09 0.0244027 -1.45604e-08
3.42045e-09 0.0244027 -1.46679e-08
3.71473e-09 0.0244027 -1.47035e-08
2.90732e-09 0.0244027 -1.45941e-08
3.23147e-09 0.0244027 -1.4526e-08
3.50229e-09 0.0244027 -1.49848e-08
3.04713e-09 0.0244027 -1.45213e-08
3.71787e-09 0.0244027 -1.47457e-08
2.41054e-09 0.0256546 -1.40827e-08
3.34153e-09 0.0256546 -1.46198e-08
3.52712e-09 0.0256546 -1.46096e-08
3.3552e-09 0.0256546 -1.48101e-08
3.68024e-09 0.0256546 -1.5159e-08
3.07179e-09 0.0256546 -1.45286e-08
3.13422e-09 0.0256546 -1.44488e-08
3.50702e-09 0.0256546 -1.47216e-08
3.57098e-09 0.0256546 -1.50521e-08
3.88917e-09 0.0256546 -1.49364e-08
3.00611e-09 0.0256546 -1.44529e-08
3.16534e-09 0.0256546 -1.47008e-08
3.43551e-09 0.0256546 -1.46755e-08
3.67133e-09 0.0256546 -1.49056e-08
3.73833e-09 0.0256546 -1.51777e-08
2.81607e-09 0.0256546 -1.48523e-08
3.14882e-09 0.0256546 -1.48359e-08
3.27417e-09 0.0256546 -1.46936e-08
3.45982e-09 0.0256546 -1.47574e-08
3.84805e-09 0.0256546 -1.48728e-08
3.38482e-09 0.0256546 -1.48315e-08
2.76133e-09 0.0256546 -1.49193e-08
3.22437e-09 0.0256546 -1.49397e-08
3.47517e-09 0.0256546 -1.47801e-08
3.20427e-09 0.0256546 -1.4597e-08
2.94306e-09 0.0269024 -1.43464e-08
3.18542e-09 0.0269024 -1.42626e-08
4.03474e-09 0.0269024 -1.44867e-08
3.6946e-09 0.0269024 -1.50662e-08
3.76079e-09 0.0269024 -1.47193e-08
2.68176e-09 0.0269024 -1.43264e-08
3.35494e-09 0.0269024 -1.4394e-08
3.69998e-09 0.0269024 -1.47742e-08
3.83498e-09 0.0269024 -1.48095e-08
4.03786e-09 0.0269024 -1.48863e-08
2.87526e-09 0.0269024 -1.47383e-08
3.26799e-09 0.0269024 -1.44668e-08
3.50568e-09 0.0269024 -1.452e-08
3.7384e-09 0.0269024 -1.46031e-08
4.51085e-09 0.0269024 -1.4743e-08
2.86292e-09 0.0269024 -1.46056e-08
3.17209e-09 0.0269024 -1.46282e-08
3.59578e-09 0.0269024 -1.45258e-08
3.63244e-09 0.0269024 -1.46241e-08
4.15249e-09 0.0269024 -1.46481e-08
2.98194e-09 0.0269024 -1.48624e-08
3.10201e-09 0.0269024 -1.44965e-08
3.51396e-09 0.0269024 -1.45193e-08
3.97903e-09 0.0269024 -1.47166e-08
4.03801e-09 0.0269024 -1.45561e-08
3.19436e-09 0.0281461 -1.40958e-08
3.96714e-09 0.0281461 -1.41757e-08
3.80559e-09 0.0281461 -1.51273e-08
3.688e-09 0.0281461 -1.46568e-08
4.48228e-09 0.0281461 -1.46788e-08
3.66995e-09 0.0281461 -1.39634e-08
3.65091e-09 0.0281461 -1.43143e-08
3.77095e-09 0.0281461 -1.43939e-08
4.04617e-09 0.0281461 -1.4438e-08
4.1232e-09 0.0281461 -1.45147e-08
3.04938e-09 0.0281461 -1.43996e-08
3.71658e-09 0.0281461 -1.42584e-08
3.95292e-09 0.0281461 -1.42159e-08
3.94096e-09 0.0281461 -1.44705e-08
4.43487e-09 0.0281461 -1.42101e-08
3.36291e-09 0.0281461 -1.43372e-08
3.59873e-09 0.0281461 -1.42655e-08
3.94965e-09 0.0281461 -1.41397e-08
4.02132e-09 0.0281461 -1.41108e-08
4.087e-09 0.0281461 -1.44771e-08
4.00209e-09 0.0281461 -1.41239e-08
3.50482e-09 0.0281461 -1.41474e-08
3.68273e-09 0.0281461 -1.40183e-08
3.94395e-09 0.0281461 -1.43295e-08
3.97262e-09 0.0281461 -1.4142e-08
3.78767e-09 0.0293859 -1.39512e-08
3.94448e-09 0.0293859 -1.43488e-08
4.03434e-09 0.0293859 -1.42648e-08
4.2605e-09 0.0293859 -1.43012e-08
4.60713e-09 0.0293859 -1.42869e-08
3.83606e-09 0.0293859 -1.39212e-08
3.96135e-09 0.0293859 -1.39701e-08
4.12548e-09 0.0293859 -1.39936e-08
4.13745e-09 0.0293859 -1.41795e-08
4.5868e-09 0.0293859 -1.40337e-08
3.91099e-09 0.0293859 -1.39448e-08
3.99204e-09 0.0293859 -1.37529e-08
4.16053e-09 0.0293859 -1.39275e-08