<?xml version="1.0"?>
<VTKFile type="UnstructuredGrid" version="0.1" byte_order="LittleEndian">
<UnstructuredGrid>
<Piece NumberOfPoints="1025" NumberOfCells="640">
<Points>
<DataArray type="Float32" NumberOfComponents="3" format="ascii">
0 0 0
0.025 0 0
0.05 0 0
0.075 0 0
0.1 0 0
0 0.025 0
0.025 0.025 0
0.05 0.025 0
0.075 0.025 0
0.1 0.025 0
0 0.05 0
0.025 0.05 0
0.05 0.05 0
0.075 0.05 0
0.1 0.05 0
0 0.075 0
0.025 0.075 0
0.05 0.075 0
0.075 0.075 0
0.1 0.075 0
0 0.1 0
0.025 0.1 0
0.05 0.1 0
0.075 0.1 0
0.1 0.1 0
0 0 0.025
0.025 0 0.025
0.05 0 0.025
0.075 0 0.025
0.1 0 0.025
0 0.025 0.025
0.025 0.025 0.025
0.05 0.025 0.025
0.075 0.025 0.025
0.1 0.025 0.025
0 0.05 0.025
0.025 0.05 0.025
0.05 0.05 0.025
0.075 0.05 0.025
0.1 0.05 0.025
0 0.075 0.025
0.025 0.075 0.025
0.05 0.075 0.025
0.075 0.075 0.025
0.1 0.075 0.025
0 0.1 0.025
0.025 0.1 0.025
0.05 0.1 0.025
0.075 0.1 0.025
0.1 0.1 0.025
0 0 0.05
0.025 0 0.05
0.05 0 0.05
0.075 0 0.05
0.1 0 0.05
0 0.025 0.05
0.025 0.025 0.05
0.05 0.025 0.05
0.075 0.025 0.05
0.1 0.025 0.05
0 0.05 0.05
0.025 0.05 0.05
0.05 0.05 0.05
0.075 0.05 0.05
0.1 0.05 0.05
0 0.075 0.05
0.025 0.075 0.05
0.05 0.075 0.05
0.075 0.075 0.05
0.1 0.075 0.05
0 0.1 0.05
0.025 0.1 0.05
0.05 0.1 0.05
0.075 0.1 0.05
0.1 0.1 0.05
0 0 0.075
0.025 0 0.075
0.05 0 0.075
0.075 0 0.075
0.1 0 0.075
0 0.025 0.075
0.025 0.025 0.075
0.05 0.025 0.075
0.075 0.025 0.075
0.1 0.025 0.075
0 0.05 0.075
0.025 0.05 0.075
0.05 0.05 0.075
0.075 0.05 0.075
0.1 0.05 0.075
0 0.075 0.075
0.025 0.075 0.075
0.05 0.075 0.075
0.075 0.075 0.075
0.1 0.075 0.075
0 0.1 0.075
0.025 0.1 0.075
0.05 0.1 0.075
0.075 0.1 0.075
0.1 0.1 0.075
0 0 0.1
0.025 0 0.1
0.05 0 0.1
0.075 0 0.1
0.1 0 0.1
0 0.025 0.1
0.025 0.025 0.1
0.05 0.025 0.1
0.075 0.025 0.1
0.1 0.025 0.1
0 0.05 0.1
0.025 0.05 0.1
0.05 0.05 0.1
0.075 0.05 0.1
0.1 0.05 0.1
0 0.075 0.1
0.025 0.075 0.1
0.05 0.075 0.1
0.075 0.075 0.1
0.1 0.075 0.1
0 0.1 0.1
0.025 0.1 0.1
0.05 0.1 0.1
0.075 0.1 0.1
0.1 0.1 0.1
0 0 0.125
0.025 0 0.125
0.05 0 0.125
0.075 0 0.125
0.1 0 0.125
0 0.025 0.125
0.025 0.025 0.125
0.05 0.025 0.125
0.075 0.025 0.125
0.1 0.025 0.125
0 0.05 0.125
0.025 0.05 0.125
0.05 0.05 0.125
0.075 0.05 0.125
0.1 0.05 0.125
0 0.075 0.125
0.025 0.075 0.125
0.05 0.075 0.125
0.075 0.075 0.125
0.1 0.075 0.125
0 0.1 0.125
0.025 0.1 0.125
0.05 0.1 0.125
0.075 0.1 0.125
0.1 0.1 0.125
0 0 0.15
0.025 0 0.15
0.05 0 0.15
0.075 0 0.15
0.1 0 0.15
0 0.025 0.15
0.025 0.025 0.15
0.05 0.025 0.15
0.075 0.025 0.15
0.1 0.025 0.15
0 0.05 0.15
0.025 0.05 0.15
0.05 0.05 0.15
0.075 0.05 0.15
0.1 0.05 0.15
0 0.075 0.15
0.025 0.075 0.15
0.05 0.075 0.15
0.075 0.075 0.15
0.1 0.075 0.15
0 0.1 0.15
0.025 0.1 0.15
0.05 0.1 0.15
0.075 0.1 0.15
0.1 0.1 0.15
0 0 0.175
0.025 0 0.175
0.05 0 0.175
0.075 0 0.175
0.1 0 0.175
0 0.025 0.175
0.025 0.025 0.175
0.05 0.025 0.175
0.075 0.025 0.175
0.1 0.025 0.175
0 0.05 0.175
0.025 0.05 0.175
0.05 0.05 0.175
0.075 0.05 0.175
0.1 0.05 0.175
0 0.075 0.175
0.025 0.075 0.175
0.05 0.075 0.175
0.075 0.075 0.175
0.1 0.075 0.175
0 0.1 0.175
0.025 0.1 0.175
0.05 0.1 0.175
0.075 0.1 0.175
0.1 0.1 0.175
0 0 0.2
0.025 0 0.2
0.05 0 0.2
0.075 0 0.2
0.1 0 0.2
0 0.025 0.2
0.025 0.025 0.2
0.05 0.025 0.2
0.075 0.025 0.2
0.1 0.025 0.2
0 0.05 0.2
0.025 0.05 0.2
0.05 0.05 0.2
0.075 0.05 0.2
0.1 0.05 0.2
0 0.075 0.2
0.025 0.075 0.2
0.05 0.075 0.2
0.075 0.075 0.2
0.1 0.075 0.2
0 0.1 0.2
0.025 0.1 0.2
0.05 0.1 0.2
0.075 0.1 0.2
0.1 0.1 0.2
0 0 0.225
0.025 0 0.225
0.05 0 0.225
0.075 0 0.225
0.1 0 0.225
0 0.025 0.225
0.025 0.025 0.225
0.05 0.025 0.225
0.075 0.025 0.225
0.1 0.025 0.225
0 0.05 0.225
0.025 0.05 0.225
0.05 0.05 0.225
0.075 0.05 0.225
0.1 0.05 0.225
0 0.075 0.225
0.025 0.075 0.225
0.05 0.075 0.225
0.075 0.075 0.225
0.1 0.075 0.225
0 0.1 0.225
0.025 0.1 0.225
0.05 0.1 0.225
0.075 0.1 0.225
0.1 0.1 0.225
0 0 0.25
0.025 0 0.25
0.05 0 0.25
0.075 0 0.25
0.1 0 0.25
0 0.025 0.25
0.025 0.025 0.25
0.05 0.025 0.25
0.075 0.025 0.25
0.1 0.025 0.25
0 0.05 0.25
0.025 0.05 0.25
0.05 0.05 0.25
0.075 0.05 0.25
0.1 0.05 0.25
0 0.075 0.25
0.025 0.075 0.25
0.05 0.075 0.25
0.075 0.075 0.25
0.1 0.075 0.25
0 0.1 0.25
0.025 0.1 0.25
0.05 0.1 0.25
0.075 0.1 0.25
0.1 0.1 0.25
0 0 0.275
0.025 0 0.275
0.05 0 0.275
0.075 0 0.275
0.1 0 0.275
0 0.025 0.275
0.025 0.025 0.275
0.05 0.025 0.275
0.075 0.025 0.275
0.1 0.025 0.275
0 0.05 0.275
0.025 0.05 0.275
0.05 0.05 0.275
0.075 0.05 0.275
0.1 0.05 0.275
0 0.075 0.275
0.025 0.075 0.275
0.05 0.075 0.275
0.075 0.075 0.275
0.1 0.075 0.275
0 0.1 0.275
0.025 0.1 0.275
0.05 0.1 0.275
0.075 0.1 0.275
0.1 0.1 0.275
0 0 0.3
0.025 0 0.3
0.05 0 0.3
0.075 0 0.3
0.1 0 0.3
0 0.025 0.3
0.025 0.025 0.3
0.05 0.025 0.3
0.075 0.025 0.3
0.1 0.025 0.3
0 0.05 0.3
0.025 0.05 0.3
0.05 0.05 0.3
0.075 0.05 0.3
0.1 0.05 0.3
0 0.075 0.3
0.025 0.075 0.3
0.05 0.075 0.3
0.075 0.075 0.3
0.1 0.075 0.3
0 0.1 0.3
0.025 0.1 0.3
0.05 0.1 0.3
0.075 0.1 0.3
0.1 0.1 0.3
0 0 0.325
0.025 0 0.325
0.05 0 0.325
0.075 0 0.325
0.1 0 0.325
0 0.025 0.325
0.025 0.025 0.325
0.05 0.025 0.325
0.075 0.025 0.325
0.1 0.025 0.325
0 0.05 0.325
0.025 0.05 0.325
0.05 0.05 0.325
0.075 0.05 0.325
0.1 0.05 0.325
0 0.075 0.325
0.025 0.075 0.325
0.05 0.075 0.325
0.075 0.075 0.325
0.1 0.075 0.325
0 0.1 0.325
0.025 0.1 0.325
0.05 0.1 0.325
0.075 0.1 0.325
0.1 0.1 0.325
0 0 0.35
0.025 0 0.35
0.05 0 0.35
0.075 0 0.35
0.1 0 0.35
0 0.025 0.35
0.025 0.025 0.35
0.05 0.025 0.35
0.075 0.025 0.35
0.1 0.025 0.35
0 0.05 0.35
0.025 0.05 0.35
0.05 0.05 0.35
0.075 0.05 0.35
0.1 0.05 0.35
0 0.075 0.35
0.025 0.075 0.35
0.05 0.075 0.35
0.075 0.075 0.35
0.1 0.075 0.35
0 0.1 0.35
0.025 0.1 0.35
0.05 0.1 0.35
0.075 0.1 0.35
0.1 0.1 0.35
0 0 0.375
0.025 0 0.375
0.05 0 0.375
0.075 0 0.375
0.1 0 0.375
0 0.025 0.375
0.025 0.025 0.375
0.05 0.025 0.375
0.075 0.025 0.375
0.1 0.025 0.375
0 0.05 0.375
0.025 0.05 0.375
0.05 0.05 0.375
0.075 0.05 0.375
0.1 0.05 0.375
0 0.075 0.375
0.025 0.075 0.375
0.05 0.075 0.375
0.075 0.075 0.375
0.1 0.075 0.375
0 0.1 0.375
0.025 0.1 0.375
0.05 0.1 0.375
0.075 0.1 0.375
0.1 0.1 0.375
0 0 0.4
0.025 0 0.4
0.05 0 0.4
0.075 0 0.4
0.1 0 0.4
0 0.025 0.4
0.025 0.025 0.4
0.05 0.025 0.4
0.075 0.025 0.4
0.1 0.025 0.4
0 0.05 0.4
0.025 0.05 0.4
0.05 0.05 0.4
0.075 0.05 0.4
0.1 0.05 0.4
0 0.075 0.4
0.025 0.075 0.4
0.05 0.075 0.4
0.075 0.075 0.4
0.1 0.075 0.4
0 0.1 0.4
0.025 0.1 0.4
0.05 0.1 0.4
0.075 0.1 0.4
0.1 0.1 0.4
0 0 0.425
0.025 0 0.425
0.05 0 0.425
0.075 0 0.425
0.1 0 0.425
0 0.025 0.425
0.025 0.025 0.425
0.05 0.025 0.425
0.075 0.025 0.425
0.1 0.025 0.425
0 0.05 0.425
0.025 0.05 0.425
0.05 0.05 0.425
0.075 0.05 0.425
0.1 0.05 0.425
0 0.075 0.425
0.025 0.075 0.425
0.05 0.075 0.425
0.075 0.075 0.425
0.1 0.075 0.425
0 0.1 0.425
0.025 0.1 0.425
0.05 0.1 0.425
0.075 0.1 0.425
0.1 0.1 0.425
0 0 0.45
0.025 0 0.45
0.05 0 0.45
0.075 0 0.45
0.1 0 0.45
0 0.025 0.45
0.025 0.025 0.45
0.05 0.025 0.45
0.075 0.025 0.45
0.1 0.025 0.45
0 0.05 0.45
0.025 0.05 0.45
0.05 0.05 0.45
0.075 0.05 0.45
0.1 0.05 0.45
0 0.075 0.45
0.025 0.075 0.45
0.05 0.075 0.45
0.075 0.075 0.45
0.1 0.075 0.45
0 0.1 0.45
0.025 0.1 0.45
0.05 0.1 0.45
0.075 0.1 0.45
0.1 0.1 0.45
0 0 0.475
0.025 0 0.475
0.05 0 0.475
0.075 0 0.475
0.1 0 0.475
0 0.025 0.475
0.025 0.025 0.475
0.05 0.025 0.475
0.075 0.025 0.475
0.1 0.025 0.475
0 0.05 0.475
0.025 0.05 0.475
0.05 0.05 0.475
0.075 0.05 0.475
0.1 0.05 0.475
0 0.075 0.475
0.025 0.075 0.475
0.05 0.075 0.475
0.075 0.075 0.475
0.1 0.075 0.475
0 0.1 0.475
0.025 0.1 0.475
0.05 0.1 0.475
0.075 0.1 0.475
0.1 0.1 0.475
0 0 0.5
0.025 0 0.5
0.05 0 0.5
0.075 0 0.5
0.1 0 0.5
0 0.025 0.5
0.025 0.025 0.5
0.05 0.025 0.5
0.075 0.025 0.5
0.1 0.025 0.5
0 0.05 0.5
0.025 0.05 0.5
0.05 0.05 0.5
0.075 0.05 0.5
0.1 0.05 0.5
0 0.075 0.5
0.025 0.075 0.5
0.05 0.075 0.5
0.075 0.075 0.5
0.1 0.075 0.5
0 0.1 0.5
0.025 0.1 0.5
0.05 0.1 0.5
0.075 0.1 0.5
0.1 0.1 0.5
0 0 0.525
0.025 0 0.525
0.05 0 0.525
0.075 0 0.525
0.1 0 0.525
0 0.025 0.525
0.025 0.025 0.525
0.05 0.025 0.525
0.075 0.025 0.525
0.1 0.025 0.525
0 0.05 0.525
0.025 0.05 0.525
0.05 0.05 0.525
0.075 0.05 0.525
0.1 0.05 0.525
0 0.075 0.525
0.025 0.075 0.525
0.05 0.075 0.525
0.075 0.075 0.525
0.1 0.075 0.525
0 0.1 0.525
0.025 0.1 0.525
0.05 0.1 0.525
0.075 0.1 0.525
0.1 0.1 0.525
0 0 0.55
0.025 0 0.55
0.05 0 0.55
0.075 0 0.55
0.1 0 0.55
0 0.025 0.55
0.025 0.025 0.55
0.05 0.025 0.55
0.075 0.025 0.55
0.1 0.025 0.55
0 0.05 0.55
0.025 0.05 0.55
0.05 0.05 0.55
0.075 0.05 0.55
0.1 0.05 0.55
0 0.075 0.55
0.025 0.075 0.55
0.05 0.075 0.55
0.075 0.075 0.55
0.1 0.075 0.55
0 0.1 0.55
0.025 0.1 0.55
0.05 0.1 0.55
0.075 0.1 0.55
0.1 0.1 0.55
0 0 0.575
0.025 0 0.575
0.05 0 0.575
0.075 0 0.575
0.1 0 0.575
0 0.025 0.575
0.025 0.025 0.575
0.05 0.025 0.575
0.075 0.025 0.575
0.1 0.025 0.575
0 0.05 0.575
0.025 0.05 0.575
0.05 0.05 0.575
0.075 0.05 0.575
0.1 0.05 0.575
0 0.075 0.575
0.025 0.075 0.575
0.05 0.075 0.575
0.075 0.075 0.575
0.1 0.075 0.575
0 0.1 0.575
0.025 0.1 0.575
0.05 0.1 0.575
0.075 0.1 0.575
0.1 0.1 0.575
0 0 0.6
0.025 0 0.6
0.05 0 0.6
0.075 0 0.6
0.1 0 0.6
0 0.025 0.6
0.025 0.025 0.6
0.05 0.025 0.6
0.075 0.025 0.6
0.1 0.025 0.6
0 0.05 0.6
0.025 0.05 0.6
0.05 0.05 0.6
0.075 0.05 0.6
0.1 0.05 0.6
0 0.075 0.6
0.025 0.075 0.6
0.05 0.075 0.6
0.075 0.075 0.6
0.1 0.075 0.6
0 0.1 0.6
0.025 0.1 0.6
0.05 0.1 0.6
0.075 0.1 0.6
0.1 0.1 0.6
0 0 0.625
0.025 0 0.625
0.05 0 0.625
0.075 0 0.625
0.1 0 0.625
0 0.025 0.625
0.025 0.025 0.625
0.05 0.025 0.625
0.075 0.025 0.625
0.1 0.025 0.625
0 0.05 0.625
0.025 0.05 0.625
0.05 0.05 0.625
0.075 0.05 0.625
0.1 0.05 0.625
0 0.075 0.625
0.025 0.075 0.625
0.05 0.075 0.625
0.075 0.075 0.625
0.1 0.075 0.625
0 0.1 0.625
0.025 0.1 0.625
0.05 0.1 0.625
0.075 0.1 0.625
0.1 0.1 0.625
0 0 0.65
0.025 0 0.65
0.05 0 0.65
0.075 0 0.65
0.1 0 0.65
0 0.025 0.65
0.025 0.025 0.65
0.05 0.025 0.65
0.075 0.025 0.65
0.1 0.025 0.65
0 0.05 0.65
0.025 0.05 0.65
0.05 0.05 0.65
0.075 0.05 0.65
0.1 0.05 0.65
0 0.075 0.65
0.025 0.075 0.65
0.05 0.075 0.65
0.075 0.075 0.65
0.1 0.075 0.65
0 0.1 0.65
0.025 0.1 0.65
0.05 0.1 0.65
0.075 0.1 0.65
0.1 0.1 0.65
0 0 0.675
0.025 0 0.675
0.05 0 0.675
0.075 0 0.675
0.1 0 0.675
[...]
<PointData Vectors="Displacement">
<DataArray type="Float32" Name="Displacement" NumberOfComponents="3" format="ascii">
0 0 0
0 0 0
0 0 0
0 0 0
0 0 0
0 0 0
0 0 0
0 0 0
0 0 0
0 0 0
0 0 0
0 0 0
0 0 0
0 0 0
0 0 0
0 0 0
0 0 0
0 0 0
0 0 0
0 0 0
0 0 0
0 0 0
0 0 0
0 0 0
0 0 0
5.84311e-10 0.00121669 2.47359e-10
5.15276e-10 0.00121669 2.24239e-10
5.0268e-10 0.00121669 2.39599e-10
4.88641e-10 0.00121669 2.36117e-10
4.50655e-10 0.00121669 2.21967e-10
5.47548e-10 0.00121669 2.31782e-10
5.18413e-10 0.00121669 2.30502e-10
5.01024e-10 0.00121669 2.28742e-10
4.83893e-10 0.00121669 2.27532e-10
4.8553e-10 0.00121669 2.21318e-10
5.3366e-10 0.00121669 2.27405e-10
5.06175e-10 0.00121669 2.35435e-10
4.98821e-10 0.00121669 2.10145e-10
4.97231e-10 0.00121669 2.23545e-10
4.80583e-10 0.00121669 2.09846e-10
5.65978e-10 0.00121669 2.38578e-10
5.0791e-10 0.00121669 2.25591e-10
5.03783e-10 0.00121669 2.33979e-10
4.89744e-10 0.00121669 2.28176e-10
4.55162e-10 0.00121669 2.24402e-10
5.85281e-10 0.00121669 2.46675e-10
5.24593e-10 0.00121669 2.49757e-10
4.90311e-10 0.00121669 2.3328e-10
4.79333e-10 0.00121669 2.36886e-10
4.49985e-10 0.00121669 2.55935e-10
1.06776e-09 0.00243358 4.33836e-10
1.04121e-09 0.00243358 4.84606e-10
1.00828e-09 0.00243358 4.77961e-10
9.79182e-10 0.00243358 4.48863e-10
9.79968e-10 0.00243358 4.35491e-10
1.02365e-09 0.00243358 4.6943e-10
1.03355e-09 0.00243358 4.64766e-10
9.97434e-10 0.00243358 4.76218e-10
1.00475e-09 0.00243358 4.52153e-10
9.76419e-10 0.00243358 4.49463e-10
1.0175e-09 0.00243358 4.56216e-10
1.00427e-09 0.00243358 4.80322e-10
9.91625e-10 0.00243358 4.15785e-10
9.81651e-10 0.00243358 4.61875e-10
1.06385e-09 0.00243358 4.57857e-10
1.07777e-09 0.00243358 4.70627e-10
9.91414e-10 0.00243358 4.61975e-10
1.00282e-09 0.00243358 4.71183e-10
9.72919e-10 0.00243358 4.72873e-10
9.81984e-10 0.00243358 4.39747e-10
1.0809e-09 0.00243358 4.36337e-10
1.03056e-09 0.00243358 4.47896e-10
9.7812e-10 0.00243358 4.99531e-10
9.71227e-10 0.00243358 4.7922e-10
9.56689e-10 0.00243358 4.71303e-10
1.52348e-09 0.00365089 7.05766e-10
1.5288e-09 0.00365089 7.01178e-10
1.51446e-09 0.00365089 7.5785e-10
1.43152e-09 0.00365089 7.61292e-10
1.51532e-09 0.00365089 7.41e-10
1.49616e-09 0.00365089 6.80418e-10
1.49234e-09 0.00365089 7.20018e-10
1.50079e-09 0.00365089 6.87944e-10
1.48581e-09 0.00365089 7.35256e-10
1.56044e-09 0.00365089 6.91848e-10
1.52121e-09 0.00365089 6.81249e-10
1.46087e-09 0.00365089 6.67625e-10
1.48388e-09 0.00365089 7.16647e-10
1.52415e-09 0.00365089 6.54746e-10
1.52704e-09 0.00365089 6.70628e-10
1.55919e-09 0.00365089 6.36335e-10
1.48612e-09 0.00365089 6.61737e-10
1.46542e-09 0.00365089 6.6178e-10
1.46928e-09 0.00365089 6.95169e-10
1.51699e-09 0.00365089 6.96083e-10
1.60193e-09 0.00365089 6.02006e-10
1.4925e-09 0.00365089 6.37284e-10
1.49388e-09 0.00365089 6.38256e-10
1.48017e-09 0.00365089 6.70813e-10
1.43758e-09 0.00365089 6.52902e-10
1.9458e-09 0.00486882 9.482e-10
1.98925e-09 0.00486882 9.78823e-10
2.05778e-09 0.00486882 9.22792e-10
1.97242e-09 0.00486882 9.93403e-10
2.03862e-09 0.00486882 9.64255e-10
1.93601e-09 0.00486882 9.41008e-10
1.94272e-09 0.00486882 9.04439e-10
2.02504e-09 0.00486882 9.06801e-10
1.99841e-09 0.00486882 9.52694e-10
2.04237e-09 0.00486882 9.89904e-10
1.88023e-09 0.00486882 8.18812e-10
1.94483e-09 0.00486882 8.80084e-10
1.97452e-09 0.00486882 8.68498e-10
1.9817e-09 0.00486882 8.96508e-10
2.12999e-09 0.00486882 8.88168e-10
1.97605e-09 0.00486882 7.88056e-10
1.95449e-09 0.00486882 7.84769e-10
1.96634e-09 0.00486882 8.16918e-10
1.9909e-09 0.00486882 8.64709e-10
2.02714e-09 0.00486882 8.76827e-10
1.94824e-09 0.00486882 7.39839e-10
1.96142e-09 0.00486882 8.06964e-10
1.97984e-09 0.00486882 7.68698e-10
1.99179e-09 0.00486882 9.01074e-10
1.94281e-09 0.00486882 8.25376e-10
2.44478e-09 0.00608757 1.07557e-09
2.37787e-09 0.00608757 1.13515e-09
2.47363e-09 0.00608757 1.06757e-09
2.49763e-09 0.00608757 1.09888e-09
2.50016e-09 0.00608757 1.16448e-09
2.36359e-09 0.00608757 1.11072e-09
2.41373e-09 0.00608757 1.10571e-09
2.48867e-09 0.00608757 1.07008e-09
2.48409e-09 0.00608757 1.10412e-09
2.53804e-09 0.00608757 1.14633e-09
2.37765e-09 0.00608757 1.0439e-09
2.37096e-09 0.00608757 1.05944e-09
2.49322e-09 0.00608757 1.10383e-09
2.46839e-09 0.00608757 1.12733e-09
2.53e-09 0.00608757 1.16612e-09
2.32722e-09 0.00608757 1.0293e-09
2.3688e-09 0.00608757 1.0319e-09
2.47503e-09 0.00608757 1.06791e-09
2.45694e-09 0.00608757 1.11089e-09
2.57545e-09 0.00608757 1.05141e-09
2.31718e-09 0.00608757 1.05544e-09
2.3823e-09 0.00608757 9.88439e-10
2.50833e-09 0.00608757 1.05923e-09
2.50936e-09 0.00608757 1.0034e-09
2.38619e-09 0.00608757 1.10404e-09
2.85505e-09 0.00730734 1.22513e-09
2.79852e-09 0.00730734 1.29452e-09
2.98551e-09 0.00730734 1.10366e-09
2.89542e-09 0.00730734 1.26534e-09
3.07925e-09 0.00730734 1.27608e-09
2.79365e-09 0.00730734 1.2226e-09
2.82913e-09 0.00730734 1.26205e-09
2.95351e-09 0.00730734 1.24203e-09
2.97166e-09 0.00730734 1.23014e-09
2.96668e-09 0.00730734 1.2853e-09
2.66929e-09 0.00730734 1.29906e-09
2.84456e-09 0.00730734 1.27475e-09
2.94838e-09 0.00730734 1.24564e-09
2.96934e-09 0.00730734 1.27622e-09
2.91354e-09 0.00730734 1.22647e-09
2.71102e-09 0.00730734 1.25873e-09
2.85925e-09 0.00730734 1.25078e-09
2.94367e-09 0.00730734 1.30443e-09
2.9525e-09 0.00730734 1.20766e-09
2.99739e-09 0.00730734 1.30749e-09
2.81795e-09 0.00730734 1.22435e-09
2.85355e-09 0.00730734 1.30997e-09
2.92158e-09 0.00730734 1.19803e-09
2.93299e-09 0.00730734 1.28859e-09
3.18327e-09 0.00730734 1.18441e-09
3.14642e-09 0.00852832 1.4903e-09
3.18878e-09 0.00852831 1.44229e-09
3.34699e-09 0.00852831 1.48004e-09
3.54634e-09 0.00852831 1.36974e-09
3.40609e-09 0.00852831 1.38654e-09
3.10025e-09 0.00852832 1.44337e-09
3.23393e-09 0.00852831 1.4525e-09
3.35446e-09 0.00852831 1.36326e-09
3.4071e-09 0.00852831 1.39644e-09
3.46414e-09 0.00852831 1.41008e-09
3.14117e-09 0.00852831 1.59355e-09
3.24313e-09 0.00852831 1.46017e-09
3.347e-09 0.00852831 1.49734e-09
3.38821e-09 0.00852831 1.42281e-09
3.47524e-09 0.00852831 1.3737e-09
3.14793e-09 0.00852831 1.46451e-09
3.28175e-09 0.00852831 1.47655e-09
3.31387e-09 0.00852831 1.34321e-09
3.43358e-09 0.00852831 1.45527e-09
3.44112e-09 0.00852831 1.4072e-09
3.33944e-09 0.00852831 1.40625e-09
3.28645e-09 0.00852831 1.40639e-09
3.34651e-09 0.00852831 1.36786e-09
3.40711e-09 0.00852831 1.43402e-09
3.39705e-09 0.00852831 1.47877e-09
3.50616e-09 0.00975068 1.57855e-09
3.53563e-09 0.00975068 1.74251e-09
3.78229e-09 0.00975068 1.55202e-09
3.75434e-09 0.00975068 1.52394e-09
4.07526e-09 0.00975068 1.48788e-09
3.42476e-09 0.00975068 1.76956e-09
3.68518e-09 0.00975068 1.70357e-09
3.7445e-09 0.00975068 1.64826e-09
3.72548e-09 0.00975067 1.56867e-09
3.99103e-09 0.00975068 1.55111e-09
3.45663e-09 0.00975067 1.58934e-09
3.62615e-09 0.00975067 1.68282e-09
3.78637e-09 0.00975068 1.51495e-09
3.66588e-09 0.00975068 1.64371e-09
4.01621e-09 0.00975067 1.60446e-09
3.71473e-09 0.00975068 1.66648e-09
3.63728e-09 0.00975067 1.58195e-09
3.73811e-09 0.00975067 1.65214e-09
3.7351e-09 0.00975067 1.62629e-09
3.90112e-09 0.00975067 1.67709e-09
3.79993e-09 0.00975068 1.46227e-09
3.67125e-09 0.00975068 1.60855e-09
3.73555e-09 0.00975067 1.56221e-09
3.86081e-09 0.00975067 1.61095e-09
3.69252e-09 0.00975067 1.58925e-09
4.06371e-09 0.0109746 1.83665e-09
4.06186e-09 0.0109746 1.59266e-09
4.09719e-09 0.0109746 1.70632e-09
4.08014e-09 0.0109746 1.61895e-09
4.26601e-09 0.0109746 1.46489e-09
4.09397e-09 0.0109746 1.72466e-09
3.99417e-09 0.0109746 1.70191e-09
4.05074e-09 0.0109746 1.61234e-09
4.11543e-09 0.0109746 1.58998e-09
4.11547e-09 0.0109746 1.62847e-09
3.9942e-09 0.0109746 1.73022e-09
3.98783e-09 0.0109746 1.65879e-09
4.11662e-09 0.0109746 1.67623e-09
4.14552e-09 0.0109746 1.71961e-09
4.31516e-09 0.0109746 1.88782e-09
3.90717e-09 0.0109746 1.59184e-09
4.07196e-09 0.0109746 1.74131e-09
4.15847e-09 0.0109746 1.78444e-09
4.17265e-09 0.0109746 1.94625e-09
4.1232e-09 0.0109746 1.8267e-09
4.13412e-09 0.0109746 1.52707e-09
4.14659e-09 0.0109746 1.68705e-09
4.07321e-09 0.0109746 1.8884e-09
4.1408e-09 0.0109746 1.79203e-09
4.08111e-09 0.0109746 1.81909e-09
4.28135e-09 0.0122002 1.85783e-09
4.35324e-09 0.0122002 1.94782e-09
4.42165e-09 0.0122002 1.63713e-09
4.45701e-09 0.0122002 1.6508e-09
4.74809e-09 0.0122002 1.92173e-09
4.26409e-09 0.0122002 1.72161e-09
4.36876e-09 0.0122002 1.73259e-09
4.44421e-09 0.0122002 1.70595e-09
4.47158e-09 0.0122002 1.67763e-09
4.88259e-09 0.0122002 1.7294e-09
4.19953e-09 0.0122002 1.70005e-09
4.36814e-09 0.0122002 1.76157e-09
4.46895e-09 0.0122002 1.86332e-09
4.51064e-09 0.0122002 1.91637e-09
4.69228e-09 0.0122002 1.76563e-09
4.28432e-09 0.0122002 1.69517e-09
4.41209e-09 0.0122002 1.70414e-09
4.42855e-09 0.0122002 1.85276e-09
4.45927e-09 0.0122002 1.85734e-09
4.3369e-09 0.0122002 1.90419e-09
4.30266e-09 0.0122002 1.82705e-09
4.54274e-09 0.0122002 1.69438e-09
4.55605e-09 0.0122002 1.8688e-09
4.25858e-09 0.0122002 1.92879e-09
4.48582e-09 0.0122002 1.80083e-09
4.83013e-09 0.0134277 2.07912e-09
4.77533e-09 0.0134277 1.90367e-09
4.77472e-09 0.0134277 1.96494e-09
4.94054e-09 0.0134277 2.07644e-09
4.82125e-09 0.0134277 2.14487e-09
4.71168e-09 0.0134277 2.0285e-09
4.69387e-09 0.0134277 1.92912e-09
4.8108e-09 0.0134277 1.85745e-09
4.92048e-09 0.0134277 1.94913e-09
5.06096e-09 0.0134277 2.02931e-09
4.53462e-09 0.0134277 1.80898e-09
4.72096e-09 0.0134277 1.81909e-09
4.83427e-09 0.0134277 1.90379e-09
4.82185e-09 0.0134277 1.82986e-09
5.14772e-09 0.0134277 2.02621e-09
4.55806e-09 0.0134277 1.83468e-09
4.75901e-09 0.0134277 1.73115e-09
4.74037e-09 0.0134277 1.70099e-09
4.86278e-09 0.0134277 1.93958e-09
4.95717e-09 0.0134277 1.93183e-09
4.48037e-09 0.0134277 1.95973e-09
4.65781e-09 0.0134277 1.6471e-09
4.73525e-09 0.0134277 1.72786e-09
5.04171e-09 0.0134277 1.95676e-09
4.96228e-09 0.0134277 1.96318e-09
4.88319e-09 0.0146572 2.14994e-09
5.08156e-09 0.0146572 2.13999e-09
5.12185e-09 0.0146572 2.33343e-09
5.19467e-09 0.0146572 2.0434e-09
5.09038e-09 0.0146572 1.92266e-09
5.01898e-09 0.0146572 2.08619e-09
5.02823e-09 0.0146572 2.07178e-09
5.13998e-09 0.0146572 1.98815e-09
5.21042e-09 0.0146572 2.07822e-09
5.30714e-09 0.0146572 1.98391e-09
4.96342e-09 0.0146572 2.0475e-09
5.01994e-09 0.0146572 1.96791e-09
5.17744e-09 0.0146572 1.87792e-09
5.21393e-09 0.0146572 2.01092e-09
5.34362e-09 0.0146572 2.00546e-09
5.07425e-09 0.0146572 1.93102e-09
4.96059e-09 0.0146572 1.90962e-09
5.25352e-09 0.0146572 1.9504e-09
5.2062e-09 0.0146572 1.99029e-09
5.39195e-09 0.0146572 1.92194e-09
5.2016e-09 0.0146572 1.93961e-09
4.93522e-09 0.0146572 2.02058e-09
5.16688e-09 0.0146572 1.89211e-09
5.24485e-09 0.0146572 1.84898e-09
5.40942e-09 0.0146572 1.91319e-09
5.34103e-09 0.0158889 2.31995e-09
5.5355e-09 0.0158889 2.06426e-09
5.47295e-09 0.0158889 2.06546e-09
5.32696e-09 0.0158889 1.90716e-09
6.07425e-09 0.0158889 1.86594e-09
5.40205e-09 0.0158889 2.03731e-09
5.42081e-09 0.0158889 2.08645e-09
5.5334e-09 0.0158889 1.94313e-09
5.6418e-09 0.0158889 2.00775e-09
5.624e-09 0.0158889 2.09226e-09
5.27401e-09 0.0158889 1.97183e-09
5.36286e-09 0.0158889 1.96456e-09
5.6504e-09 0.0158889 2.06698e-09
5.71859e-09 0.0158889 2.14476e-09
5.50571e-09 0.0158889 2.07026e-09
5.24665e-09 0.0158889 2.09855e-09
5.43762e-09 0.0158889 2.08664e-09
5.63976e-09 0.0158889 2.20123e-09
5.62385e-09 0.0158889 2.0418e-09
5.74285e-09 0.0158889 1.95053e-09
5.15643e-09 0.0158889 2.07945e-09
5.44162e-09 0.0158889 1.96014e-09
5.48196e-09 0.0158889 2.17752e-09
5.6746e-09 0.0158889 2.35106e-09
5.87037e-09 0.0158889 2.01177e-09
6.45876e-09 0.0171228 1.97288e-09
5.94374e-09 0.0171228 2.02832e-09
5.8155e-09 0.0171228 1.96673e-09
5.90385e-09 0.0171228 1.94351e-09
5.65754e-09 0.0171228 2.38484e-09
6.19633e-09 0.0171228 2.01679e-09
5.9264e-09 0.0171228 1.99526e-09
5.9328e-09 0.0171228 1.99486e-09
5.85278e-09 0.0171228 1.96525e-09
5.92954e-09 0.0171228 2.01294e-09
5.61598e-09 0.0171228 2.05257e-09
5.87524e-09 0.0171228 2.20124e-09
6.12854e-09 0.0171228 2.22443e-09
6.00678e-09 0.0171228 1.87599e-09
5.96554e-09 0.0171228 1.99856e-09
5.62871e-09 0.0171228 2.16994e-09
5.88561e-09 0.0171228 2.21465e-09
6.13793e-09 0.0171228 2.26241e-09
5.96012e-09 0.0171228 2.15344e-09
5.97042e-09 0.0171228 2.07662e-09
5.78431e-09 0.0171228 2.43034e-09
5.86033e-09 0.0171228 2.11791e-09
6.07868e-09 0.0171228 2.17865e-09
5.99699e-09 0.0171228 2.40009e-09
6.18802e-09 0.0171228 2.22139e-09
6.42582e-09 0.018359 1.95562e-09
6.40815e-09 0.018359 1.80572e-09
6.23227e-09 0.018359 1.81013e-09
6.44431e-09 0.018359 1.88565e-09
6.27786e-09 0.018359 1.88481e-09
6.26446e-09 0.018359 1.8965e-09
6.30227e-09 0.018359 1.97054e-09
6.39428e-09 0.018359 1.99903e-09
6.30466e-09 0.018359 1.8571e-09
6.33411e-09 0.018359 1.74268e-09
6.23253e-09 0.018359 2.07529e-09
6.40705e-09 0.018359 2.01944e-09
6.40199e-09 0.018359 2.04642e-09
6.28394e-09 0.018359 1.96002e-09
6.44729e-09 0.018359 1.67508e-09
6.22829e-09 0.018359 2.04432e-09
6.22322e-09 0.018359 2.21638e-09
6.45442e-09 0.018359 2.03898e-09
6.40359e-09 0.018359 1.79695e-09
6.54114e-09 0.018359 1.95016e-09
6.76876e-09 0.018359 2.09538e-09
6.09458e-09 0.018359 1.82376e-09
6.48726e-09 0.018359 1.88764e-09
6.27469e-09 0.018359 2.02169e-09
6.92896e-09 0.018359 2.14711e-09
5.9566e-09 0.0195977 1.74897e-09
7.04295e-09 0.0195977 2.09854e-09
6.70848e-09 0.0195977 2.03831e-09
6.54747e-09 0.0195977 1.44862e-09
6.77768e-09 0.0195977 1.87009e-09
6.70099e-09 0.0195977 1.89822e-09
6.78365e-09 0.0195977 1.89715e-09
6.82876e-09 0.0195977 1.88217e-09
6.64981e-09 0.0195977 1.76358e-09
6.44871e-09 0.0195977 1.53256e-09
6.67251e-09 0.0195977 1.83005e-09
6.66909e-09 0.0195977 1.91375e-09
6.83395e-09 0.0195977 1.75003e-09
6.57897e-09 0.0195977 1.66747e-09
6.6347e-09 0.0195977 1.85495e-09
6.92488e-09 0.0195977 1.72702e-09
6.50714e-09 0.0195977 1.6958e-09
6.71922e-09 0.0195977 1.89049e-09
6.72517e-09 0.0195977 1.76379e-09
7.24156e-09 0.0195977 1.72356e-09
6.15904e-09 0.0195977 1.72788e-09
6.8249e-09 0.0195977 1.66661e-09
6.56517e-09 0.0195977 1.38303e-09
6.87648e-09 0.0195977 1.8052e-09
7.42174e-09 0.0195977 1.6184e-09
7.5253e-09 0.0208388 2.05127e-09
7.12021e-09 0.0208388 1.8407e-09
7.28548e-09 0.0208388 2.07617e-09
6.82164e-09 0.0208388 1.83792e-09
6.54776e-09 0.0208388 1.82809e-09
7.25401e-09 0.0208388 1.96594e-09
7.02437e-09 0.0208388 1.8679e-09
7.07747e-09 0.0208388 1.78823e-09
6.77448e-09 0.0208388 1.69046e-09
7.15013e-09 0.0208388 1.65953e-09
7.06662e-09 0.0208388 1.56228e-09
6.99345e-09 0.0208388 1.53236e-09
6.99176e-09 0.0208388 1.53146e-09
7.1406e-09 0.0208388 1.48207e-09
6.92062e-09 0.0208388 1.66866e-09
6.91658e-09 0.0208388 1.51353e-09
6.83936e-09 0.0208388 1.56259e-09
7.1061e-09 0.0208388 1.50641e-09
7.17282e-09 0.0208388 1.51055e-09
7.04941e-09 0.0208388 1.60797e-09
7.09678e-09 0.0208388 1.49251e-09
6.64594e-09 0.0208388 1.60653e-09
7.26994e-09 0.0208388 1.41599e-09
7.2125e-09 0.0208388 1.50448e-09
7.43876e-09 0.0208388 1.58148e-09
7.86357e-09 0.0220825 2.05457e-09
7.45014e-09 0.0220825 2.03781e-09
7.48183e-09 0.0220825 1.72786e-09
7.11741e-09 0.0220825 1.5436e-09
7.32568e-09 0.0220825 1.54591e-09
7.5468e-09 0.0220825 1.77002e-09
7.33367e-09 0.0220825 1.58651e-09
7.52339e-09 0.0220825 1.84097e-09
7.24307e-09 0.0220825 1.52465e-09
7.41586e-09 0.0220825 1.47734e-09
7.35221e-09 0.0220825 1.69391e-09
7.11947e-09 0.0220825 1.44324e-09
7.23931e-09 0.0220825 1.41912e-09
7.45339e-09 0.0220825 1.52485e-09
7.50326e-09 0.0220825 1.46648e-09
7.07157e-09 0.0220825 1.43453e-09
7.07086e-09 0.0220825 1.42975e-09
7.30075e-09 0.0220825 1.43703e-09
7.54933e-09 0.0220825 1.33112e-09
7.71486e-09 0.0220825 1.46055e-09
6.73777e-09 0.0220825 1.64425e-09
7.20427e-09 0.0220825 1.32437e-09
7.18767e-09 0.0220825 1.34452e-09
7.46779e-09 0.0220825 1.06161e-09
8.0578e-09 0.0220825 1.41734e-09
7.67217e-09 0.0233288 1.72818e-09
7.83803e-09 0.0233288 2.10757e-09
7.68239e-09 0.0233288 1.62599e-09
7.77185e-09 0.0233288 7.52323e-10
7.7686e-09 0.0233288 1.32129e-09
7.56034e-09 0.0233288 1.87079e-09
7.59234e-09 0.0233288 1.5523e-09
7.67284e-09 0.0233288 1.72148e-09
7.55256e-09 0.0233288 1.53253e-09
7.95885e-09 0.0233288 1.06704e-09
7.22425e-09 0.0233288 1.65341e-09
7.58261e-09 0.0233288 1.81531e-09
7.60422e-09 0.0233288 1.69113e-09
7.76591e-09 0.0233288 1.32599e-09
8.43447e-09 0.0233288 1.41481e-09
7.26026e-09 0.0233288 1.71227e-09
7.28511e-09 0.0233288 1.61556e-09
7.51319e-09 0.0233288 1.78821e-09
7.90971e-09 0.0233288 1.48064e-09
8.13021e-09 0.0233288 1.57353e-09
7.10969e-09 0.0233288 2.00636e-09
7.28504e-09 0.0233288 1.42663e-09
7.72915e-09 0.0233288 1.44199e-09
7.87483e-09 0.0233288 1.33836e-09
8.21233e-09 0.0233288 1.55885e-09
8.0343e-09 0.0245777 2.18643e-09
7.91656e-09 0.0245777 2.12443e-09
7.74453e-09 0.0245777 1.97237e-09
7.47274e-09 0.0245777 1.68609e-09
8.21687e-09 0.0245777 1.64503e-09
7.93624e-09 0.0245777 2.05001e-09
7.87519e-09 0.0245777 2.02563e-09
7.9807e-09 0.0245777 1.73327e-09
7.78201e-09 0.0245777 1.58692e-09
7.8236e-09 0.0245777 1.63413e-09
7.4487e-09 0.0245777 2.03642e-09
7.75212e-09 0.0245777 2.18617e-09
7.82787e-09 0.0245777 2.08439e-09
8.01516e-09 0.0245777 1.67067e-09
8.48881e-09 0.0245777 1.67173e-09
7.74648e-09 0.0245777 2.3702e-09
7.60298e-09 0.0245777 2.11796e-09
7.76778e-09 0.0245777 2.26041e-09
8.11441e-09 0.0245777 1.88718e-09
8.3764e-09 0.0245777 1.8049e-09
7.68858e-09 0.0245777 2.1447e-09
7.40768e-09 0.0245777 2.27783e-09
7.87466e-09 0.0245777 2.18596e-09
8.1804e-09 0.0245777 1.92726e-09
8.16749e-09 0.0245777 2.02837e-09
8.12381e-09 0.0258291 2.36749e-09
8.22688e-09 0.0258291 2.16509e-09
8.37839e-09 0.0258291 2.0952e-09
7.59123e-09 0.0258291 1.69923e-09
7.92081e-09 0.0258291 2.5815e-09
7.87181e-09 0.0258291 2.26899e-09
8.14494e-09 0.0258291 2.28555e-09
8.11779e-09 0.0258291 2.24175e-09
7.97582e-09 0.0258291 2.17432e-09
7.77764e-09 0.0258291 2.2035e-09
7.81993e-09 0.0258291 2.64971e-09
8.12296e-09 0.0258291 2.4867e-09
8.00545e-09 0.0258291 2.5548e-09
8.04192e-09 0.0258291 2.31339e-09
8.6758e-09 0.0258291 2.38419e-09
7.93454e-09 0.0258291 2.62984e-09
7.94696e-09 0.0258291 2.79095e-09
7.97883e-09 0.0258291 2.50172e-09
8.10417e-09 0.0258291 2.40082e-09
8.54925e-09 0.0258291 2.44091e-09
8.33342e-09 0.0258291 2.87283e-09
7.82257e-09 0.0258291 2.88324e-09
8.30264e-09 0.0258291 2.40086e-09
8.38602e-09 0.0258291 2.34602e-09
8.188e-09 0.0258291 2.27973e-09
8.57363e-09 0.0270832 2.88214e-09
8.32864e-09 0.0270832 2.27016e-09
8.17723e-09 0.0270832 1.87221e-09
8.15695e-09 0.0270832 2.54429e-09
8.23838e-09 0.0270832 2.57588e-09
8.01222e-09 0.0270832 3.04332e-09
8.34745e-09 0.0270832 2.48588e-09
8.17212e-09 0.0270832 2.37187e-09
8.12604e-09 0.0270832 2.69121e-09
7.95142e-09 0.0270832 2.81668e-09
8.31382e-09 0.0270832 2.83144e-09
8.20213e-09 0.0270832 3.00424e-09
8.33657e-09 0.0270832 2.88162e-09
8.04341e-09 0.0270832 2.91899e-09
8.77356e-09 0.0270832 2.9628e-09
8.44124e-09 0.0270832 3.09961e-09
8.16995e-09 0.0270832 3.10149e-09
8.10664e-09 0.0270832 2.97018e-09
8.23911e-09 0.0270832 3.0317e-09
8.7195e-09 0.0270832 3.09461e-09
8.46288e-09 0.0270832 3.25661e-09
8.22845e-09 0.0270832 2.92353e-09
8.05101e-09 0.0270832 3.05505e-09
8.23033e-09 0.0270832 3.0924e-09
8.12416e-09 0.0270832 3.25002e-09
8.39201e-09 0.0283398 3.29955e-09
7.82748e-09 0.0283398 2.86309e-09
8.1895e-09 0.0283398 3.08405e-09
8.37841e-09 0.0283398 2.86274e-09
8.13071e-09 0.0283398 3.08188e-09
8.339e-09 0.0283398 3.26339e-09
7.97791e-09 0.0283398 3.22056e-09
8.34829e-09 0.0283398 3.06663e-09
8.16035e-09 0.0283398 3.1164e-09
8.30577e-09 0.0283398 3.13232e-09
8.42389e-09 0.0283398 3.28613e-09
8.25437e-09 0.0283398 3.34852e-09
8.23432e-09 0.0283398 3.16582e-09
7.97916e-09 0.0283398 3.24732e-09
8.69837e-09 0.0283398 3.46973e-09
8.2881e-09 0.0283398 3.48143e-09
8.31039e-09 0.0283398 3.50382e-09
8.15156e-09 0.0283398 3.45336e-09
8.159e-09 0.0283398 3.6028e-09
8.59238e-09 0.0283398 3.59752e-09
8.75993e-09 0.0283398 3.15149e-09
8.33514e-09 0.0283398 3.50794e-09
8.36257e-09 0.0283398 3.3563e-09
7.97955e-09 0.0283398 4.08319e-09
8.3614e-09 0.0283398 3.6049e-09
7.86768e-09 0.029599 3.54417e-09
8.15779e-09 0.029599 3.4483e-09
8.34109e-09 0.029599 3.41271e-09