<?xml version="1.0"?>
<VTKFile type="UnstructuredGrid" version="0.1" byte_order="LittleEndian">
<UnstructuredGrid>
<Piece NumberOfPoints="1025" NumberOfCells="640">
<Points>
<DataArray type="Float32" NumberOfComponents="3" format="ascii">
0 0 0
0.025 0 0
0.05 0 0
0.075 0 0
0.1 0 0
0 0.025 0
0.025 0.025 0
0.05 0.025 0
0.075 0.025 0
0.1 0.025 0
0 0.05 0
0.025 0.05 0
0.05 0.05 0
0.075 0.05 0
0.1 0.05 0
0 0.075 0
0.025 0.075 0
0.05 0.075 0
0.075 0.075 0
0.1 0.075 0
0 0.1 0
0.025 0.1 0
0.05 0.1 0
0.075 0.1 0
0.1 0.1 0
0 0 0.025
0.025 0 0.025
0.05 0 0.025
0.075 0 0.025
0.1 0 0.025
0 0.025 0.025
0.025 0.025 0.025
0.05 0.025 0.025
0.075 0.025 0.025
0.1 0.025 0.025
0 0.05 0.025
0.025 0.05 0.025
0.05 0.05 0.025
0.075 0.05 0.025
0.1 0.05 0.025
0 0.075 0.025
0.025 0.075 0.025
0.05 0.075 0.025
0.075 0.075 0.025
0.1 0.075 0.025
0 0.1 0.025
0.025 0.1 0.025
0.05 0.1 0.025
0.075 0.1 0.025
0.1 0.1 0.025
0 0 0.05
0.025 0 0.05
0.05 0 0.05
0.075 0 0.05
0.1 0 0.05
0 0.025 0.05
0.025 0.025 0.05
0.05 0.025 0.05
0.075 0.025 0.05
0.1 0.025 0.05
0 0.05 0.05
0.025 0.05 0.05
0.05 0.05 0.05
0.075 0.05 0.05
0.1 0.05 0.05
0 0.075 0.05
0.025 0.075 0.05
0.05 0.075 0.05
0.075 0.075 0.05
0.1 0.075 0.05
0 0.1 0.05
0.025 0.1 0.05
0.05 0.1 0.05
0.075 0.1 0.05
0.1 0.1 0.05
0 0 0.075
0.025 0 0.075
0.05 0 0.075
0.075 0 0.075
0.1 0 0.075
0 0.025 0.075
0.025 0.025 0.075
0.05 0.025 0.075
0.075 0.025 0.075
0.1 0.025 0.075
0 0.05 0.075
0.025 0.05 0.075
0.05 0.05 0.075
0.075 0.05 0.075
0.1 0.05 0.075
0 0.075 0.075
0.025 0.075 0.075
0.05 0.075 0.075
0.075 0.075 0.075
0.1 0.075 0.075
0 0.1 0.075
0.025 0.1 0.075
0.05 0.1 0.075
0.075 0.1 0.075
0.1 0.1 0.075
0 0 0.1
0.025 0 0.1
0.05 0 0.1
0.075 0 0.1
0.1 0 0.1
0 0.025 0.1
0.025 0.025 0.1
0.05 0.025 0.1
0.075 0.025 0.1
0.1 0.025 0.1
0 0.05 0.1
0.025 0.05 0.1
0.05 0.05 0.1
0.075 0.05 0.1
0.1 0.05 0.1
0 0.075 0.1
0.025 0.075 0.1
0.05 0.075 0.1
0.075 0.075 0.1
0.1 0.075 0.1
0 0.1 0.1
0.025 0.1 0.1
0.05 0.1 0.1
0.075 0.1 0.1
0.1 0.1 0.1
0 0 0.125
0.025 0 0.125
0.05 0 0.125
0.075 0 0.125
0.1 0 0.125
0 0.025 0.125
0.025 0.025 0.125
0.05 0.025 0.125
0.075 0.025 0.125
0.1 0.025 0.125
0 0.05 0.125
0.025 0.05 0.125
0.05 0.05 0.125
0.075 0.05 0.125
0.1 0.05 0.125
0 0.075 0.125
0.025 0.075 0.125
0.05 0.075 0.125
0.075 0.075 0.125
0.1 0.075 0.125
0 0.1 0.125
0.025 0.1 0.125
0.05 0.1 0.125
0.075 0.1 0.125
0.1 0.1 0.125
0 0 0.15
0.025 0 0.15
0.05 0 0.15
0.075 0 0.15
0.1 0 0.15
0 0.025 0.15
0.025 0.025 0.15
0.05 0.025 0.15
0.075 0.025 0.15
0.1 0.025 0.15
0 0.05 0.15
0.025 0.05 0.15
0.05 0.05 0.15
0.075 0.05 0.15
0.1 0.05 0.15
0 0.075 0.15
0.025 0.075 0.15
0.05 0.075 0.15
0.075 0.075 0.15
0.1 0.075 0.15
0 0.1 0.15
0.025 0.1 0.15
0.05 0.1 0.15
0.075 0.1 0.15
0.1 0.1 0.15
0 0 0.175
0.025 0 0.175
0.05 0 0.175
0.075 0 0.175
0.1 0 0.175
0 0.025 0.175
0.025 0.025 0.175
0.05 0.025 0.175
0.075 0.025 0.175
0.1 0.025 0.175
0 0.05 0.175
0.025 0.05 0.175
0.05 0.05 0.175
0.075 0.05 0.175
0.1 0.05 0.175
0 0.075 0.175
0.025 0.075 0.175
0.05 0.075 0.175
0.075 0.075 0.175
0.1 0.075 0.175
0 0.1 0.175
0.025 0.1 0.175
0.05 0.1 0.175
0.075 0.1 0.175
0.1 0.1 0.175
0 0 0.2
0.025 0 0.2
0.05 0 0.2
0.075 0 0.2
0.1 0 0.2
0 0.025 0.2
0.025 0.025 0.2
0.05 0.025 0.2
0.075 0.025 0.2
0.1 0.025 0.2
0 0.05 0.2
0.025 0.05 0.2
0.05 0.05 0.2
0.075 0.05 0.2
0.1 0.05 0.2
0 0.075 0.2
0.025 0.075 0.2
0.05 0.075 0.2
0.075 0.075 0.2
0.1 0.075 0.2
0 0.1 0.2
0.025 0.1 0.2
0.05 0.1 0.2
0.075 0.1 0.2
0.1 0.1 0.2
0 0 0.225
0.025 0 0.225
0.05 0 0.225
0.075 0 0.225
0.1 0 0.225
0 0.025 0.225
0.025 0.025 0.225
0.05 0.025 0.225
0.075 0.025 0.225
0.1 0.025 0.225
0 0.05 0.225
0.025 0.05 0.225
0.05 0.05 0.225
0.075 0.05 0.225
0.1 0.05 0.225
0 0.075 0.225
0.025 0.075 0.225
0.05 0.075 0.225
0.075 0.075 0.225
0.1 0.075 0.225
0 0.1 0.225
0.025 0.1 0.225
0.05 0.1 0.225
0.075 0.1 0.225
0.1 0.1 0.225
0 0 0.25
0.025 0 0.25
0.05 0 0.25
0.075 0 0.25
0.1 0 0.25
0 0.025 0.25
0.025 0.025 0.25
0.05 0.025 0.25
0.075 0.025 0.25
0.1 0.025 0.25
0 0.05 0.25
0.025 0.05 0.25
0.05 0.05 0.25
0.075 0.05 0.25
0.1 0.05 0.25
0 0.075 0.25
0.025 0.075 0.25
0.05 0.075 0.25
0.075 0.075 0.25
0.1 0.075 0.25
0 0.1 0.25
0.025 0.1 0.25
0.05 0.1 0.25
0.075 0.1 0.25
0.1 0.1 0.25
0 0 0.275
0.025 0 0.275
0.05 0 0.275
0.075 0 0.275
0.1 0 0.275
0 0.025 0.275
0.025 0.025 0.275
0.05 0.025 0.275
0.075 0.025 0.275
0.1 0.025 0.275
0 0.05 0.275
0.025 0.05 0.275
0.05 0.05 0.275
0.075 0.05 0.275
0.1 0.05 0.275
0 0.075 0.275
0.025 0.075 0.275
0.05 0.075 0.275
0.075 0.075 0.275
0.1 0.075 0.275
0 0.1 0.275
0.025 0.1 0.275
0.05 0.1 0.275
0.075 0.1 0.275
0.1 0.1 0.275
0 0 0.3
0.025 0 0.3
0.05 0 0.3
0.075 0 0.3
0.1 0 0.3
0 0.025 0.3
0.025 0.025 0.3
0.05 0.025 0.3
0.075 0.025 0.3
0.1 0.025 0.3
0 0.05 0.3
0.025 0.05 0.3
0.05 0.05 0.3
0.075 0.05 0.3
0.1 0.05 0.3
0 0.075 0.3
0.025 0.075 0.3
0.05 0.075 0.3
0.075 0.075 0.3
0.1 0.075 0.3
0 0.1 0.3
0.025 0.1 0.3
0.05 0.1 0.3
0.075 0.1 0.3
0.1 0.1 0.3
0 0 0.325
0.025 0 0.325
0.05 0 0.325
0.075 0 0.325
0.1 0 0.325
0 0.025 0.325
0.025 0.025 0.325
0.05 0.025 0.325
0.075 0.025 0.325
0.1 0.025 0.325
0 0.05 0.325
0.025 0.05 0.325
0.05 0.05 0.325
0.075 0.05 0.325
0.1 0.05 0.325
0 0.075 0.325
0.025 0.075 0.325
0.05 0.075 0.325
0.075 0.075 0.325
0.1 0.075 0.325
0 0.1 0.325
0.025 0.1 0.325
0.05 0.1 0.325
0.075 0.1 0.325
0.1 0.1 0.325
0 0 0.35
0.025 0 0.35
0.05 0 0.35
0.075 0 0.35
0.1 0 0.35
0 0.025 0.35
0.025 0.025 0.35
0.05 0.025 0.35
0.075 0.025 0.35
0.1 0.025 0.35
0 0.05 0.35
0.025 0.05 0.35
0.05 0.05 0.35
0.075 0.05 0.35
0.1 0.05 0.35
0 0.075 0.35
0.025 0.075 0.35
0.05 0.075 0.35
0.075 0.075 0.35
0.1 0.075 0.35
0 0.1 0.35
0.025 0.1 0.35
0.05 0.1 0.35
0.075 0.1 0.35
0.1 0.1 0.35
0 0 0.375
0.025 0 0.375
0.05 0 0.375
0.075 0 0.375
0.1 0 0.375
0 0.025 0.375
0.025 0.025 0.375
0.05 0.025 0.375
0.075 0.025 0.375
0.1 0.025 0.375
0 0.05 0.375
0.025 0.05 0.375
0.05 0.05 0.375
0.075 0.05 0.375
0.1 0.05 0.375
0 0.075 0.375
0.025 0.075 0.375
0.05 0.075 0.375
0.075 0.075 0.375
0.1 0.075 0.375
0 0.1 0.375
0.025 0.1 0.375
0.05 0.1 0.375
0.075 0.1 0.375
0.1 0.1 0.375
0 0 0.4
0.025 0 0.4
0.05 0 0.4
0.075 0 0.4
0.1 0 0.4
0 0.025 0.4
0.025 0.025 0.4
0.05 0.025 0.4
0.075 0.025 0.4
0.1 0.025 0.4
0 0.05 0.4
0.025 0.05 0.4
0.05 0.05 0.4
0.075 0.05 0.4
0.1 0.05 0.4
0 0.075 0.4
0.025 0.075 0.4
0.05 0.075 0.4
0.075 0.075 0.4
0.1 0.075 0.4
0 0.1 0.4
0.025 0.1 0.4
0.05 0.1 0.4
0.075 0.1 0.4
0.1 0.1 0.4
0 0 0.425
0.025 0 0.425
0.05 0 0.425
0.075 0 0.425
0.1 0 0.425
0 0.025 0.425
0.025 0.025 0.425
0.05 0.025 0.425
0.075 0.025 0.425
0.1 0.025 0.425
0 0.05 0.425
0.025 0.05 0.425
0.05 0.05 0.425
0.075 0.05 0.425
0.1 0.05 0.425
0 0.075 0.425
0.025 0.075 0.425
0.05 0.075 0.425
0.075 0.075 0.425
0.1 0.075 0.425
0 0.1 0.425
0.025 0.1 0.425
0.05 0.1 0.425
0.075 0.1 0.425
0.1 0.1 0.425
0 0 0.45
0.025 0 0.45
0.05 0 0.45
0.075 0 0.45
0.1 0 0.45
0 0.025 0.45
0.025 0.025 0.45
0.05 0.025 0.45
0.075 0.025 0.45
0.1 0.025 0.45
0 0.05 0.45
0.025 0.05 0.45
0.05 0.05 0.45
0.075 0.05 0.45
0.1 0.05 0.45
0 0.075 0.45
0.025 0.075 0.45
0.05 0.075 0.45
0.075 0.075 0.45
0.1 0.075 0.45
0 0.1 0.45
0.025 0.1 0.45
0.05 0.1 0.45
0.075 0.1 0.45
0.1 0.1 0.45
0 0 0.475
0.025 0 0.475
0.05 0 0.475
0.075 0 0.475
0.1 0 0.475
0 0.025 0.475
0.025 0.025 0.475
0.05 0.025 0.475
0.075 0.025 0.475
0.1 0.025 0.475
0 0.05 0.475
0.025 0.05 0.475
0.05 0.05 0.475
0.075 0.05 0.475
0.1 0.05 0.475
0 0.075 0.475
0.025 0.075 0.475
0.05 0.075 0.475
0.075 0.075 0.475
0.1 0.075 0.475
0 0.1 0.475
0.025 0.1 0.475
0.05 0.1 0.475
0.075 0.1 0.475
0.1 0.1 0.475
0 0 0.5
0.025 0 0.5
0.05 0 0.5
0.075 0 0.5
0.1 0 0.5
0 0.025 0.5
0.025 0.025 0.5
0.05 0.025 0.5
0.075 0.025 0.5
0.1 0.025 0.5
0 0.05 0.5
0.025 0.05 0.5
0.05 0.05 0.5
0.075 0.05 0.5
0.1 0.05 0.5
0 0.075 0.5
0.025 0.075 0.5
0.05 0.075 0.5
0.075 0.075 0.5
0.1 0.075 0.5
0 0.1 0.5
0.025 0.1 0.5
0.05 0.1 0.5
0.075 0.1 0.5
0.1 0.1 0.5
0 0 0.525
0.025 0 0.525
0.05 0 0.525
0.075 0 0.525
0.1 0 0.525
0 0.025 0.525
0.025 0.025 0.525
0.05 0.025 0.525
0.075 0.025 0.525
0.1 0.025 0.525
0 0.05 0.525
0.025 0.05 0.525
0.05 0.05 0.525
0.075 0.05 0.525
0.1 0.05 0.525
0 0.075 0.525
0.025 0.075 0.525
0.05 0.075 0.525
0.075 0.075 0.525
0.1 0.075 0.525
0 0.1 0.525
0.025 0.1 0.525
0.05 0.1 0.525
0.075 0.1 0.525
0.1 0.1 0.525
0 0 0.55
0.025 0 0.55
0.05 0 0.55
0.075 0 0.55
0.1 0 0.55
0 0.025 0.55
0.025 0.025 0.55
0.05 0.025 0.55
0.075 0.025 0.55
0.1 0.025 0.55
0 0.05 0.55
0.025 0.05 0.55
0.05 0.05 0.55
0.075 0.05 0.55
0.1 0.05 0.55
0 0.075 0.55
0.025 0.075 0.55
0.05 0.075 0.55
0.075 0.075 0.55
0.1 0.075 0.55
0 0.1 0.55
0.025 0.1 0.55
0.05 0.1 0.55
0.075 0.1 0.55
0.1 0.1 0.55
0 0 0.575
0.025 0 0.575
0.05 0 0.575
0.075 0 0.575
0.1 0 0.575
0 0.025 0.575
0.025 0.025 0.575
0.05 0.025 0.575
0.075 0.025 0.575
0.1 0.025 0.575
0 0.05 0.575
0.025 0.05 0.575
0.05 0.05 0.575
0.075 0.05 0.575
0.1 0.05 0.575
0 0.075 0.575
0.025 0.075 0.575
0.05 0.075 0.575
0.075 0.075 0.575
0.1 0.075 0.575
0 0.1 0.575
0.025 0.1 0.575
0.05 0.1 0.575
0.075 0.1 0.575
0.1 0.1 0.575
0 0 0.6
0.025 0 0.6
0.05 0 0.6
0.075 0 0.6
0.1 0 0.6
0 0.025 0.6
0.025 0.025 0.6
0.05 0.025 0.6
0.075 0.025 0.6
0.1 0.025 0.6
0 0.05 0.6
0.025 0.05 0.6
0.05 0.05 0.6
0.075 0.05 0.6
0.1 0.05 0.6
0 0.075 0.6
0.025 0.075 0.6
0.05 0.075 0.6
0.075 0.075 0.6
0.1 0.075 0.6
0 0.1 0.6
0.025 0.1 0.6
0.05 0.1 0.6
0.075 0.1 0.6
0.1 0.1 0.6
0 0 0.625
0.025 0 0.625
0.05 0 0.625
0.075 0 0.625
0.1 0 0.625
0 0.025 0.625
0.025 0.025 0.625
0.05 0.025 0.625
0.075 0.025 0.625
0.1 0.025 0.625
0 0.05 0.625
0.025 0.05 0.625
0.05 0.05 0.625
0.075 0.05 0.625
0.1 0.05 0.625
0 0.075 0.625
0.025 0.075 0.625
0.05 0.075 0.625
0.075 0.075 0.625
0.1 0.075 0.625
0 0.1 0.625
0.025 0.1 0.625
0.05 0.1 0.625
0.075 0.1 0.625
0.1 0.1 0.625
0 0 0.65
0.025 0 0.65
0.05 0 0.65
0.075 0 0.65
0.1 0 0.65
0 0.025 0.65
0.025 0.025 0.65
0.05 0.025 0.65
0.075 0.025 0.65
0.1 0.025 0.65
0 0.05 0.65
0.025 0.05 0.65
0.05 0.05 0.65
0.075 0.05 0.65
0.1 0.05 0.65
0 0.075 0.65
0.025 0.075 0.65
0.05 0.075 0.65
0.075 0.075 0.65
0.1 0.075 0.65
0 0.1 0.65
0.025 0.1 0.65
0.05 0.1 0.65
0.075 0.1 0.65
0.1 0.1 0.65
0 0 0.675
0.025 0 0.675
0.05 0 0.675
0.075 0 0.675
0.1 0 0.675
[...]
<PointData Vectors="Displacement">
<DataArray type="Float32" Name="Displacement" NumberOfComponents="3" format="ascii">
0 0 0
0 0 0
0 0 0
0 0 0
0 0 0
0 0 0
0 0 0
0 0 0
0 0 0
0 0 0
0 0 0
0 0 0
0 0 0
0 0 0
0 0 0
0 0 0
0 0 0
0 0 0
0 0 0
0 0 0
0 0 0
0 0 0
0 0 0
0 0 0
0 0 0
-1.53492e-09 0.00116585 -1.35223e-09
-1.29124e-09 0.00116585 -1.36335e-09
-1.15575e-09 0.00116585 -1.33943e-09
-1.01327e-09 0.00116585 -1.35372e-09
-7.60189e-10 0.00116585 -1.33944e-09
-1.54722e-09 0.00116585 -1.36785e-09
-1.29436e-09 0.00116585 -1.36151e-09
-1.14448e-09 0.00116585 -1.35092e-09
-1.01034e-09 0.00116585 -1.34191e-09
-7.47896e-10 0.00116585 -1.34467e-09
-1.55603e-09 0.00116585 -1.36743e-09
-1.2996e-09 0.00116585 -1.3515e-09
-1.15123e-09 0.00116585 -1.36259e-09
-1.00174e-09 0.00116585 -1.35744e-09
-7.42326e-10 0.00116585 -1.34669e-09
-1.51814e-09 0.00116585 -1.34084e-09
-1.29412e-09 0.00116585 -1.33172e-09
-1.14385e-09 0.00116585 -1.33553e-09
-1.01159e-09 0.00116585 -1.32575e-09
-7.61555e-10 0.00116585 -1.33861e-09
-1.49319e-09 0.00116585 -1.3218e-09
-1.2762e-09 0.00116585 -1.32226e-09
-1.15159e-09 0.00116585 -1.32929e-09
-1.01365e-09 0.00116585 -1.32564e-09
-7.88738e-10 0.00116585 -1.31562e-09
-2.68391e-09 0.00233296 -2.71112e-09
-2.46849e-09 0.00233296 -2.6618e-09
-2.25776e-09 0.00233296 -2.64188e-09
-2.07302e-09 0.00233296 -2.68167e-09
-1.8054e-09 0.00233296 -2.71982e-09
-2.74973e-09 0.00233296 -2.70613e-09
-2.47238e-09 0.00233296 -2.69096e-09
-2.26271e-09 0.00233296 -2.66174e-09
-2.05697e-09 0.00233296 -2.68061e-09
-1.81568e-09 0.00233296 -2.68913e-09
-2.74245e-09 0.00233296 -2.69539e-09
-2.47285e-09 0.00233296 -2.71154e-09
-2.26224e-09 0.00233296 -2.67518e-09
-2.05897e-09 0.00233296 -2.67107e-09
-1.7809e-09 0.00233296 -2.66726e-09
-2.68601e-09 0.00233296 -2.67254e-09
-2.47358e-09 0.00233296 -2.6713e-09
-2.26061e-09 0.00233296 -2.67354e-09
-2.07319e-09 0.00233296 -2.67257e-09
-1.81719e-09 0.00233296 -2.68474e-09
-2.62908e-09 0.00233296 -2.64058e-09
-2.44918e-09 0.00233296 -2.68673e-09
-2.27306e-09 0.00233296 -2.63758e-09
-2.08125e-09 0.00233296 -2.66809e-09
-1.81764e-09 0.00233296 -2.69135e-09
-3.7282e-09 0.00350268 -3.85763e-09
-3.49948e-09 0.00350267 -3.8749e-09
-3.34106e-09 0.00350267 -3.79765e-09
-3.17435e-09 0.00350267 -3.81811e-09
-2.8599e-09 0.00350267 -3.86381e-09
-3.75742e-09 0.00350268 -3.89506e-09
-3.51559e-09 0.00350267 -3.86182e-09
-3.29532e-09 0.00350267 -3.83587e-09
-3.133e-09 0.00350267 -3.81486e-09
-2.88042e-09 0.00350267 -3.84327e-09
-3.76085e-09 0.00350267 -3.85201e-09
-3.52363e-09 0.00350267 -3.86776e-09
-3.30134e-09 0.00350267 -3.8656e-09
-3.0905e-09 0.00350267 -3.84252e-09
-2.86784e-09 0.00350267 -3.85026e-09
-3.65921e-09 0.00350267 -3.8652e-09
-3.51953e-09 0.00350267 -3.86978e-09
-3.3344e-09 0.00350267 -3.85548e-09
-3.12227e-09 0.00350267 -3.8784e-09
-2.90697e-09 0.00350267 -3.83942e-09
-3.65854e-09 0.00350268 -3.8523e-09
-3.50507e-09 0.00350268 -3.86641e-09
-3.34381e-09 0.00350268 -3.8974e-09
-3.1337e-09 0.00350267 -3.87444e-09
-2.92681e-09 0.00350267 -3.91755e-09
-4.68233e-09 0.00467636 -4.86702e-09
-4.43723e-09 0.00467636 -4.85858e-09
-4.21268e-09 0.00467636 -4.79661e-09
-4.10533e-09 0.00467636 -4.77315e-09
-3.89654e-09 0.00467636 -4.77686e-09
-4.62456e-09 0.00467636 -4.80508e-09
-4.45679e-09 0.00467636 -4.81426e-09
-4.22301e-09 0.00467636 -4.82435e-09
-4.11161e-09 0.00467636 -4.78193e-09
-3.87942e-09 0.00467636 -4.79996e-09
-4.69957e-09 0.00467636 -4.80376e-09
-4.45906e-09 0.00467636 -4.80421e-09
-4.22949e-09 0.00467636 -4.80792e-09
-4.09372e-09 0.00467636 -4.7994e-09
-3.90918e-09 0.00467636 -4.79762e-09
-4.58508e-09 0.00467636 -4.82987e-09
-4.46654e-09 0.00467636 -4.81913e-09
-4.27267e-09 0.00467636 -4.84425e-09
-4.09749e-09 0.00467636 -4.79067e-09
-3.90217e-09 0.00467636 -4.85172e-09
-4.61882e-09 0.00467636 -4.78912e-09
-4.44288e-09 0.00467636 -4.82497e-09
-4.3008e-09 0.00467636 -4.85455e-09
-4.14017e-09 0.00467636 -4.80324e-09
-3.90939e-09 0.00467636 -4.82562e-09
-5.48578e-09 0.00585539 -5.48213e-09
-5.21462e-09 0.00585539 -5.5172e-09
-5.04824e-09 0.00585539 -5.57184e-09
-4.94482e-09 0.00585539 -5.48398e-09
-4.73614e-09 0.00585539 -5.48868e-09
-5.44685e-09 0.00585539 -5.46686e-09
-5.22976e-09 0.00585539 -5.41196e-09
-5.04496e-09 0.00585539 -5.50753e-09
-4.94565e-09 0.00585539 -5.48522e-09
-4.79843e-09 0.00585539 -5.43607e-09
-5.37859e-09 0.00585539 -5.45944e-09
-5.25937e-09 0.00585539 -5.44015e-09
-5.04481e-09 0.00585539 -5.44241e-09
-4.95384e-09 0.00585539 -5.44515e-09
-4.79777e-09 0.00585539 -5.40811e-09
-5.41841e-09 0.00585539 -5.45229e-09
-5.21124e-09 0.00585539 -5.45196e-09
-5.07024e-09 0.00585539 -5.37223e-09
-4.9873e-09 0.00585539 -5.45641e-09
-4.76857e-09 0.00585539 -5.38168e-09
-5.17962e-09 0.00585539 -5.42488e-09
-5.22857e-09 0.00585539 -5.33463e-09
-5.13492e-09 0.00585539 -5.44082e-09
-5.00352e-09 0.00585539 -5.43232e-09
-4.92046e-09 0.00585539 -5.42968e-09
-5.97229e-09 0.00704098 -5.7461e-09
-5.96965e-09 0.00704098 -5.81224e-09
-5.74494e-09 0.00704098 -5.8915e-09
-5.67912e-09 0.00704098 -5.94693e-09
-5.35964e-09 0.00704098 -5.77657e-09
-5.8994e-09 0.00704098 -5.79814e-09
-5.91508e-09 0.00704098 -5.80583e-09
-5.7606e-09 0.00704098 -5.81756e-09
-5.64737e-09 0.00704098 -5.81882e-09
-5.55041e-09 0.00704098 -5.83068e-09
-5.99285e-09 0.00704098 -5.75126e-09
-5.86397e-09 0.00704098 -5.75825e-09
-5.73255e-09 0.00704098 -5.78843e-09
-5.64314e-09 0.00704098 -5.80735e-09
-5.63153e-09 0.00704098 -5.82425e-09
-5.87311e-09 0.00704098 -5.80118e-09
-5.82372e-09 0.00704098 -5.75294e-09
-5.75474e-09 0.00704098 -5.76871e-09
-5.68548e-09 0.00704098 -5.75577e-09
-5.6049e-09 0.00704098 -5.75016e-09
-5.87339e-09 0.00704098 -5.75412e-09
-5.77925e-09 0.00704098 -5.84356e-09
-5.77411e-09 0.00704098 -5.73522e-09
-5.82506e-09 0.00704098 -5.71574e-09
-5.52088e-09 0.00704098 -5.78578e-09
-6.51706e-09 0.00823404 -5.81875e-09
-6.35362e-09 0.00823404 -5.69328e-09
-6.2168e-09 0.00823404 -5.72245e-09
-6.13218e-09 0.00823404 -5.91863e-09
-6.26447e-09 0.00823404 -5.82697e-09
-6.39014e-09 0.00823404 -5.77521e-09
-6.3418e-09 0.00823404 -5.82017e-09
-6.23409e-09 0.00823404 -5.78332e-09
-6.20457e-09 0.00823404 -5.84266e-09
-6.23891e-09 0.00823404 -5.85564e-09
-6.33189e-09 0.00823404 -5.69721e-09
-6.32057e-09 0.00823404 -5.73407e-09
-6.27742e-09 0.00823404 -5.71964e-09
-6.19958e-09 0.00823404 -5.75773e-09
-6.18778e-09 0.00823404 -5.79955e-09
-6.36944e-09 0.00823404 -5.77113e-09
-6.24333e-09 0.00823404 -5.77466e-09
-6.24347e-09 0.00823404 -5.81561e-09
-6.26356e-09 0.00823404 -5.76124e-09
-6.2422e-09 0.00823404 -5.7623e-09
-6.36223e-09 0.00823403 -5.81961e-09
-6.19121e-09 0.00823404 -5.75317e-09
-6.18899e-09 0.00823404 -5.83562e-09
-6.25962e-09 0.00823404 -5.71301e-09
-6.33751e-09 0.00823404 -5.74593e-09
-6.52958e-09 0.00943505 -5.35307e-09
-6.60899e-09 0.00943505 -5.42693e-09
-6.51659e-09 0.00943505 -5.6246e-09
-6.68752e-09 0.00943505 -5.37819e-09
-6.56422e-09 0.00943505 -5.6284e-09
-6.71194e-09 0.00943505 -5.43686e-09
-6.51437e-09 0.00943505 -5.28805e-09
-6.56917e-09 0.00943505 -5.43682e-09
-6.6949e-09 0.00943505 -5.48057e-09
-6.57584e-09 0.00943505 -5.54014e-09
-6.54333e-09 0.00943505 -5.43893e-09
-6.58995e-09 0.00943505 -5.49406e-09
-6.52511e-09 0.00943505 -5.48306e-09
-6.76497e-09 0.00943505 -5.43157e-09
-6.57937e-09 0.00943505 -5.45607e-09
-6.43889e-09 0.00943505 -5.38781e-09
-6.54892e-09 0.00943505 -5.38735e-09
-6.58091e-09 0.00943505 -5.44051e-09
-6.71327e-09 0.00943505 -5.36763e-09
-6.7223e-09 0.00943505 -5.381e-09
-6.33917e-09 0.00943505 -5.40506e-09
-6.5777e-09 0.00943505 -5.51998e-09
-6.53328e-09 0.00943505 -5.36333e-09
-6.70206e-09 0.00943505 -5.34342e-09
-6.78189e-09 0.00943505 -5.37366e-09
-6.71833e-09 0.0106441 -4.78303e-09
-6.62339e-09 0.0106441 -4.91504e-09
-6.69933e-09 0.0106441 -4.83782e-09
-6.96207e-09 0.0106441 -4.9707e-09
-6.91059e-09 0.0106441 -4.97558e-09
-6.50397e-09 0.0106441 -4.82059e-09
-6.73177e-09 0.0106441 -4.85919e-09
-6.75439e-09 0.0106441 -4.93521e-09
-6.90397e-09 0.0106441 -5.01884e-09
-6.95185e-09 0.0106441 -4.91156e-09
-6.6047e-09 0.0106441 -4.84e-09
-6.71812e-09 0.0106441 -4.91418e-09
-6.78528e-09 0.0106441 -4.92093e-09
-6.87424e-09 0.0106441 -4.88063e-09
-6.91384e-09 0.0106441 -4.79246e-09
-6.51471e-09 0.0106441 -4.99916e-09
-6.68077e-09 0.0106441 -4.84478e-09
-6.77358e-09 0.0106441 -4.78495e-09
-6.92619e-09 0.0106441 -4.7452e-09
-7.0291e-09 0.0106441 -4.73413e-09
-6.37612e-09 0.0106441 -4.96326e-09
-6.58564e-09 0.0106441 -5.01879e-09
-6.73203e-09 0.0106441 -4.80487e-09
-6.95996e-09 0.0106441 -4.75852e-09
-7.13466e-09 0.0106441 -4.8345e-09
-6.32791e-09 0.0118608 -3.85179e-09
-6.69496e-09 0.0118608 -3.81529e-09
-6.75227e-09 0.0118608 -4.20602e-09
-6.82861e-09 0.0118608 -4.0825e-09
-6.95173e-09 0.0118608 -3.91844e-09
-6.48564e-09 0.0118608 -3.97027e-09
-6.72089e-09 0.0118608 -3.92519e-09
-6.76266e-09 0.0118608 -4.1045e-09
-6.8649e-09 0.0118608 -4.0552e-09
-6.93122e-09 0.0118608 -4.09782e-09
-6.65668e-09 0.0118608 -4.06003e-09
-6.69215e-09 0.0118608 -3.96434e-09
-6.88278e-09 0.0118608 -4.03284e-09
-6.92343e-09 0.0118608 -3.98413e-09
-6.97737e-09 0.0118608 -4.13394e-09
-6.55921e-09 0.0118608 -4.10138e-09
-6.76104e-09 0.0118608 -4.1019e-09
-6.80051e-09 0.0118608 -3.90988e-09
-6.96378e-09 0.0118608 -4.03537e-09
-7.13582e-09 0.0118608 -4.04263e-09
-6.60548e-09 0.0118608 -4.05458e-09
-6.6452e-09 0.0118608 -4.05945e-09
-6.65173e-09 0.0118608 -3.94415e-09
-7.18561e-09 0.0118608 -3.93965e-09
-6.87772e-09 0.0118608 -3.87426e-09
-6.2555e-09 0.0130849 -2.8435e-09
-6.55208e-09 0.0130849 -2.83624e-09
-6.69854e-09 0.0130849 -2.82177e-09
-6.60811e-09 0.0130849 -2.8425e-09
-7.13105e-09 0.0130849 -2.63099e-09
-6.31935e-09 0.0130849 -2.77657e-09
-6.5655e-09 0.0130849 -2.87816e-09
-6.6813e-09 0.0130849 -2.96287e-09
-6.69752e-09 0.0130849 -2.89933e-09
-6.65238e-09 0.0130849 -2.91112e-09
-6.59193e-09 0.0130849 -2.85323e-09
-6.53913e-09 0.0130849 -2.93548e-09
-6.70396e-09 0.0130849 -2.88465e-09
-6.88266e-09 0.0130849 -2.98996e-09
-6.67385e-09 0.0130849 -2.99772e-09
-6.62558e-09 0.0130849 -2.88725e-09
-6.58354e-09 0.0130849 -2.93975e-09
-6.74361e-09 0.0130849 -2.99196e-09
-6.83198e-09 0.0130849 -2.85297e-09
-6.88525e-09 0.0130849 -2.80492e-09
-6.66053e-09 0.0130849 -2.83843e-09
-6.64016e-09 0.0130849 -2.9376e-09
-6.75853e-09 0.0130849 -2.97765e-09
-6.53946e-09 0.0130849 -2.77694e-09
-7.31896e-09 0.0130849 -2.79433e-09
-5.90576e-09 0.0143161 -1.42268e-09
-6.12291e-09 0.0143161 -1.46931e-09
-6.42407e-09 0.0143161 -1.33365e-09
-6.4671e-09 0.0143161 -1.53951e-09
-6.48791e-09 0.0143161 -1.63981e-09
-5.95788e-09 0.0143161 -1.29525e-09
-6.28214e-09 0.0143161 -1.50779e-09
-6.38746e-09 0.0143161 -1.43257e-09
-6.55252e-09 0.0143161 -1.62933e-09
-6.53923e-09 0.0143161 -1.56726e-09
-6.05537e-09 0.0143161 -1.51866e-09
-6.35529e-09 0.0143161 -1.44748e-09
-6.38488e-09 0.0143161 -1.71272e-09
-6.66748e-09 0.0143161 -1.5666e-09
-6.52913e-09 0.0143161 -1.58542e-09
-5.9716e-09 0.0143161 -1.46772e-09
-6.39166e-09 0.0143161 -1.46956e-09
-6.35786e-09 0.0143161 -1.43127e-09
-6.62764e-09 0.0143161 -1.56482e-09
-6.82967e-09 0.0143161 -1.60716e-09
-6.04548e-09 0.0143161 -1.39525e-09
-6.44243e-09 0.0143161 -1.3002e-09
-6.22395e-09 0.0143161 -1.57667e-09
-6.63668e-09 0.0143161 -1.4981e-09
-7.0111e-09 0.0143161 -1.55495e-09
-5.40472e-09 0.0155543 1.89808e-10
-5.83821e-09 0.0155543 7.18834e-11
-5.95732e-09 0.0155543 -1.11271e-11
-6.28104e-09 0.0155543 -1.36851e-10
-6.0717e-09 0.0155543 4.03553e-11
-5.58937e-09 0.0155543 1.48447e-10
-5.84778e-09 0.0155543 7.58211e-11
-6.09195e-09 0.0155543 -1.77613e-10
-6.11161e-09 0.0155543 5.94369e-12
-6.20197e-09 0.0155543 -3.85043e-11
-5.5762e-09 0.0155543 7.31544e-11
-5.96772e-09 0.0155543 4.76068e-11
-6.00119e-09 0.0155543 3.34905e-11
-6.08731e-09 0.0155543 -1.37902e-10
-6.38284e-09 0.0155543 -3.45084e-11
-5.76505e-09 0.0155543 2.11533e-10
-5.79795e-09 0.0155543 2.26693e-10
-5.96742e-09 0.0155543 1.62931e-10
-6.25148e-09 0.0155543 2.63636e-11
-6.31004e-09 0.0155543 -1.19803e-10
-5.61996e-09 0.0155543 2.92582e-10
-5.84628e-09 0.0155543 2.05453e-10
-5.9514e-09 0.0155543 3.32517e-10
-6.21114e-09 0.0155543 1.42109e-14
-6.35694e-09 0.0155543 -1.27623e-10
-4.64227e-09 0.0167999 1.75771e-09
-5.22203e-09 0.0167999 1.66194e-09
-5.58052e-09 0.0167999 1.32897e-09
-5.72426e-09 0.0167999 1.36026e-09
-6.29915e-09 0.0167999 1.62694e-09
-4.92639e-09 0.0167999 1.65972e-09
-5.34681e-09 0.0167999 1.71464e-09
-5.58553e-09 0.0167999 1.58536e-09
-5.72163e-09 0.0167999 1.47914e-09
-6.07307e-09 0.0167999 1.54637e-09
-5.22872e-09 0.0167999 1.7742e-09
-5.3818e-09 0.0167999 1.76107e-09
-5.48695e-09 0.0167999 1.6771e-09
-5.83379e-09 0.0167999 1.46161e-09
-5.70859e-09 0.0167999 1.47649e-09
-5.17038e-09 0.0167999 1.97877e-09
-5.39385e-09 0.0167999 1.8282e-09
-5.42117e-09 0.0167999 1.832e-09
-5.87902e-09 0.0167999 1.5311e-09
-6.03821e-09 0.0167999 1.6564e-09
-5.32574e-09 0.0167999 2.12942e-09
-5.34728e-09 0.0167999 2.0165e-09
-5.45901e-09 0.0167999 1.78194e-09
-5.76076e-09 0.0167999 1.74953e-09
-6.10847e-09 0.0167999 1.66851e-09
-4.42705e-09 0.0180529 3.35405e-09
-4.97427e-09 0.0180529 3.3327e-09
-5.07165e-09 0.0180529 2.88398e-09
-5.23641e-09 0.0180529 2.99005e-09
-5.6416e-09 0.0180529 2.99852e-09
-4.63553e-09 0.0180529 3.28162e-09
-4.86585e-09 0.0180529 3.22062e-09
-5.04014e-09 0.0180529 3.17337e-09
-5.39556e-09 0.0180529 3.06452e-09
-5.52247e-09 0.0180529 2.98973e-09
-4.68729e-09 0.0180529 3.36994e-09
-4.88445e-09 0.0180529 3.32109e-09
-5.14724e-09 0.0180529 3.26366e-09
-5.43593e-09 0.0180529 3.08653e-09
-5.43766e-09 0.0180529 2.99168e-09
-4.51749e-09 0.0180529 3.35383e-09
-4.97388e-09 0.0180529 3.36609e-09
-5.13512e-09 0.0180529 3.38109e-09
-5.3161e-09 0.0180529 3.24036e-09
-5.47682e-09 0.0180529 3.30925e-09
-4.10039e-09 0.0180529 3.37293e-09
-5.14715e-09 0.0180529 3.31645e-09
-5.07585e-09 0.0180529 3.41064e-09
-5.52519e-09 0.0180529 3.46352e-09
-5.38017e-09 0.0180529 3.32009e-09
-4.77041e-09 0.0193131 4.68322e-09
-4.31577e-09 0.0193131 4.83291e-09
-4.60696e-09 0.0193131 4.62703e-09
-4.91953e-09 0.0193131 4.59102e-09
-4.81695e-09 0.0193131 4.56153e-09
-4.44704e-09 0.0193131 4.76636e-09
-4.38185e-09 0.0193131 4.76063e-09
-4.60164e-09 0.0193131 4.76697e-09
-4.98871e-09 0.0193131 4.57576e-09
-5.09855e-09 0.0193131 4.685e-09
-3.98396e-09 0.0193131 4.86868e-09
-4.40141e-09 0.0193131 4.78579e-09
-4.61208e-09 0.0193131 4.80621e-09
-5.04396e-09 0.0193131 4.84238e-09
-5.08657e-09 0.0193131 4.91046e-09
-3.81879e-09 0.0193131 4.62992e-09
-4.58794e-09 0.0193131 4.8356e-09
-4.64261e-09 0.0193131 5.00875e-09
-5.02071e-09 0.0193131 5.0296e-09
-4.89435e-09 0.0193131 4.92091e-09
-4.32115e-09 0.0193131 4.78906e-09
-4.31852e-09 0.0193131 4.612e-09
-4.8844e-09 0.0193131 4.73564e-09
-4.64787e-09 0.0193131 5.00401e-09
-5.30974e-09 0.0193131 4.87051e-09
-3.44753e-09 0.0205792 6.56511e-09
-4.06303e-09 0.0205792 6.51628e-09
-4.14422e-09 0.0205792 6.6369e-09
-4.77589e-09 0.0205792 6.3363e-09
-4.73029e-09 0.0205792 6.37307e-09
-3.78887e-09 0.0205792 6.39078e-09
-4.06047e-09 0.0205792 6.355e-09
-4.22637e-09 0.0205792 6.42262e-09
-4.61057e-09 0.0205792 6.29829e-09
-4.68804e-09 0.0205792 6.31039e-09
-3.41413e-09 0.0205792 6.14032e-09
-4.0292e-09 0.0205792 6.23437e-09
-4.30313e-09 0.0205792 6.32982e-09
-4.52406e-09 0.0205792 6.47871e-09
-5.24025e-09 0.0205792 6.43055e-09
-3.45985e-09 0.0205792 6.25887e-09
-3.95207e-09 0.0205792 6.14963e-09
-4.27554e-09 0.0205792 6.36545e-09
-4.56602e-09 0.0205792 6.27298e-09
-5.1574e-09 0.0205792 6.50976e-09
-3.0173e-09 0.0205792 6.00404e-09
-4.41464e-09 0.0205792 6.00485e-09
-4.02387e-09 0.0205792 6.34034e-09
-4.52177e-09 0.0205792 6.43198e-09
-5.14978e-09 0.0205792 6.50416e-09
-3.72962e-09 0.0218493 7.4451e-09
-3.96609e-09 0.0218493 7.73239e-09
-3.98858e-09 0.0218493 7.76116e-09
-4.27808e-09 0.0218493 7.74997e-09
-4.11275e-09 0.0218493 7.73016e-09
-3.25373e-09 0.0218493 7.54707e-09
-3.94244e-09 0.0218493 7.4267e-09
-3.94108e-09 0.0218493 7.65321e-09
-4.3126e-09 0.0218493 7.85194e-09
-3.96991e-09 0.0218493 7.55226e-09
-3.55256e-09 0.0218493 7.66751e-09
-3.77739e-09 0.0218493 7.35027e-09
-3.97585e-09 0.0218493 7.50539e-09
-4.14662e-09 0.0218493 7.56009e-09
-4.32721e-09 0.0218493 7.57375e-09
-3.17266e-09 0.0218493 7.43684e-09
-3.82045e-09 0.0218493 7.55383e-09
-3.95216e-09 0.0218493 7.52535e-09
-4.12454e-09 0.0218493 7.51951e-09
-4.28696e-09 0.0218493 7.65003e-09
-3.82913e-09 0.0218493 7.62278e-09
-3.56328e-09 0.0218493 7.61227e-09
-3.92575e-09 0.0218493 7.42528e-09
-4.16389e-09 0.0218493 7.60132e-09
-4.27058e-09 0.0218493 7.59571e-09
-4.00037e-09 0.0231212 8.41104e-09
-3.71434e-09 0.0231212 8.46146e-09
-3.66056e-09 0.0231212 8.37744e-09
-3.9151e-09 0.0231212 8.6364e-09
-3.92463e-09 0.0231212 8.67088e-09
-3.85548e-09 0.0231212 8.61193e-09
-3.70758e-09 0.0231212 8.42681e-09
-3.52752e-09 0.0231212 8.72057e-09
-3.8279e-09 0.0231212 8.65608e-09
-4.33956e-09 0.0231212 8.46007e-09
-3.89983e-09 0.0231212 8.53115e-09
-3.59555e-09 0.0231212 8.577e-09
-3.73916e-09 0.0231212 8.5146e-09
-3.97107e-09 0.0231212 8.46677e-09
-3.60289e-09 0.0231212 8.40594e-09
-3.23865e-09 0.0231212 8.65641e-09
-3.64903e-09 0.0231212 8.76932e-09
-3.79991e-09 0.0231212 8.81974e-09
-3.9316e-09 0.0231212 8.55363e-09
-3.59532e-09 0.0231212 8.54152e-09
-3.0496e-09 0.0231212 9.00737e-09
-3.6204e-09 0.0231212 8.42081e-09
-3.77304e-09 0.0231212 8.81082e-09
-3.93734e-09 0.0231212 8.63537e-09
-3.70656e-09 0.0231212 8.92541e-09
-3.42877e-09 0.0243929 9.79716e-09
-3.74945e-09 0.0243929 9.68826e-09
-3.33707e-09 0.024393 9.78742e-09
-3.95374e-09 0.0243929 9.52869e-09
-3.75321e-09 0.0243929 9.75535e-09
-3.71241e-09 0.0243929 9.66728e-09
-3.64018e-09 0.0243929 9.64033e-09
-3.73498e-09 0.024393 9.50887e-09
-3.79159e-09 0.0243929 9.53245e-09
-3.73866e-09 0.0243929 9.46326e-09
-3.61685e-09 0.0243929 9.66843e-09
-3.88962e-09 0.0243929 9.78062e-09
-3.63654e-09 0.0243929 9.8709e-09
-3.82113e-09 0.0243929 9.35483e-09
-3.24967e-09 0.0243929 9.34939e-09
-3.34604e-09 0.0243929 9.81045e-09
-3.74117e-09 0.0243929 9.50799e-09
-3.84476e-09 0.0243929 9.64922e-09
-3.7462e-09 0.0243929 9.73283e-09
-3.58613e-09 0.0243929 9.58069e-09
-3.32075e-09 0.0243929 9.54214e-09
-3.67493e-09 0.0243929 1.01153e-08
-4.06506e-09 0.0243929 9.80488e-09
-3.82654e-09 0.0243929 9.8045e-09
-3.73052e-09 0.0243929 9.86386e-09
-3.25377e-09 0.0256642 1.02886e-08
-3.868e-09 0.0256642 1.09339e-08
-3.29347e-09 0.0256642 1.03646e-08
-3.88529e-09 0.0256642 1.0437e-08
-3.88476e-09 0.0256642 1.06621e-08
-3.86854e-09 0.0256642 1.05964e-08
-3.63558e-09 0.0256642 1.05371e-08
-3.66352e-09 0.0256642 1.05418e-08
-3.86087e-09 0.0256642 1.06511e-08
-3.51098e-09 0.0256642 1.06892e-08
-3.76131e-09 0.0256642 1.05444e-08
-3.84797e-09 0.0256642 1.07728e-08
-3.72529e-09 0.0256642 1.0644e-08
-3.6882e-09 0.0256642 1.06519e-08
-3.04749e-09 0.0256642 1.045e-08
-3.83617e-09 0.0256642 1.08126e-08
-3.89499e-09 0.0256642 1.08108e-08
-3.69494e-09 0.0256642 1.06862e-08
-3.70569e-09 0.0256642 1.05922e-08
-3.12408e-09 0.0256642 1.06247e-08
-3.73399e-09 0.0256642 1.0724e-08
-3.86933e-09 0.0256642 1.06103e-08
-3.66364e-09 0.0256642 1.08796e-08
-3.41642e-09 0.0256642 1.10463e-08
-3.90422e-09 0.0256642 1.06035e-08
-4.15926e-09 0.0269361 1.13202e-08
-3.51046e-09 0.0269361 1.10768e-08
-3.93908e-09 0.0269361 1.10545e-08
-3.61232e-09 0.0269361 1.14135e-08
-3.49684e-09 0.0269361 1.14196e-08
-3.93516e-09 0.0269361 1.16007e-08
-3.70063e-09 0.0269361 1.12667e-08
-3.55466e-09 0.0269361 1.13102e-08
-3.54135e-09 0.0269361 1.14499e-08
-3.51111e-09 0.0269361 1.1504e-08
-4.16211e-09 0.0269361 1.15495e-08
-3.8368e-09 0.0269361 1.14951e-08
-3.65368e-09 0.0269361 1.16868e-08
-3.65039e-09 0.0269361 1.13546e-08
-2.49806e-09 0.0269361 1.17366e-08
-3.90098e-09 0.0269361 1.12026e-08
-3.77702e-09 0.0269361 1.16694e-08
-3.6544e-09 0.0269361 1.16685e-08
-3.60098e-09 0.0269361 1.16308e-08
-3.08761e-09 0.0269361 1.14969e-08
-3.3556e-09 0.0269361 1.16228e-08
-3.90759e-09 0.0269361 1.0857e-08
-3.48451e-09 0.0269361 1.16439e-08
-3.38657e-09 0.0269361 1.14368e-08
-3.54417e-09 0.0269361 1.1536e-08
-3.78673e-09 0.0282109 1.22943e-08
-3.93866e-09 0.0282109 1.19546e-08