<?xml version="1.0"?>
<VTKFile type="UnstructuredGrid" version="0.1" byte_order="LittleEndian">
<UnstructuredGrid>
<Piece NumberOfPoints="1025" NumberOfCells="640">
<Points>
<DataArray type="Float32" NumberOfComponents="3" format="ascii">
0 0 0
0.025 0 0
0.05 0 0
0.075 0 0
0.1 0 0
0 0.025 0
0.025 0.025 0
0.05 0.025 0
0.075 0.025 0
0.1 0.025 0
0 0.05 0
0.025 0.05 0
0.05 0.05 0
0.075 0.05 0
0.1 0.05 0
0 0.075 0
0.025 0.075 0
0.05 0.075 0
0.075 0.075 0
0.1 0.075 0
0 0.1 0
0.025 0.1 0
0.05 0.1 0
0.075 0.1 0
0.1 0.1 0
0 0 0.025
0.025 0 0.025
0.05 0 0.025
0.075 0 0.025
0.1 0 0.025
0 0.025 0.025
0.025 0.025 0.025
0.05 0.025 0.025
0.075 0.025 0.025
0.1 0.025 0.025
0 0.05 0.025
0.025 0.05 0.025
0.05 0.05 0.025
0.075 0.05 0.025
0.1 0.05 0.025
0 0.075 0.025
0.025 0.075 0.025
0.05 0.075 0.025
0.075 0.075 0.025
0.1 0.075 0.025
0 0.1 0.025
0.025 0.1 0.025
0.05 0.1 0.025
0.075 0.1 0.025
0.1 0.1 0.025
0 0 0.05
0.025 0 0.05
0.05 0 0.05
0.075 0 0.05
0.1 0 0.05
0 0.025 0.05
0.025 0.025 0.05
0.05 0.025 0.05
0.075 0.025 0.05
0.1 0.025 0.05
0 0.05 0.05
0.025 0.05 0.05
0.05 0.05 0.05
0.075 0.05 0.05
0.1 0.05 0.05
0 0.075 0.05
0.025 0.075 0.05
0.05 0.075 0.05
0.075 0.075 0.05
0.1 0.075 0.05
0 0.1 0.05
0.025 0.1 0.05
0.05 0.1 0.05
0.075 0.1 0.05
0.1 0.1 0.05
0 0 0.075
0.025 0 0.075
0.05 0 0.075
0.075 0 0.075
0.1 0 0.075
0 0.025 0.075
0.025 0.025 0.075
0.05 0.025 0.075
0.075 0.025 0.075
0.1 0.025 0.075
0 0.05 0.075
0.025 0.05 0.075
0.05 0.05 0.075
0.075 0.05 0.075
0.1 0.05 0.075
0 0.075 0.075
0.025 0.075 0.075
0.05 0.075 0.075
0.075 0.075 0.075
0.1 0.075 0.075
0 0.1 0.075
0.025 0.1 0.075
0.05 0.1 0.075
0.075 0.1 0.075
0.1 0.1 0.075
0 0 0.1
0.025 0 0.1
0.05 0 0.1
0.075 0 0.1
0.1 0 0.1
0 0.025 0.1
0.025 0.025 0.1
0.05 0.025 0.1
0.075 0.025 0.1
0.1 0.025 0.1
0 0.05 0.1
0.025 0.05 0.1
0.05 0.05 0.1
0.075 0.05 0.1
0.1 0.05 0.1
0 0.075 0.1
0.025 0.075 0.1
0.05 0.075 0.1
0.075 0.075 0.1
0.1 0.075 0.1
0 0.1 0.1
0.025 0.1 0.1
0.05 0.1 0.1
0.075 0.1 0.1
0.1 0.1 0.1
0 0 0.125
0.025 0 0.125
0.05 0 0.125
0.075 0 0.125
0.1 0 0.125
0 0.025 0.125
0.025 0.025 0.125
0.05 0.025 0.125
0.075 0.025 0.125
0.1 0.025 0.125
0 0.05 0.125
0.025 0.05 0.125
0.05 0.05 0.125
0.075 0.05 0.125
0.1 0.05 0.125
0 0.075 0.125
0.025 0.075 0.125
0.05 0.075 0.125
0.075 0.075 0.125
0.1 0.075 0.125
0 0.1 0.125
0.025 0.1 0.125
0.05 0.1 0.125
0.075 0.1 0.125
0.1 0.1 0.125
0 0 0.15
0.025 0 0.15
0.05 0 0.15
0.075 0 0.15
0.1 0 0.15
0 0.025 0.15
0.025 0.025 0.15
0.05 0.025 0.15
0.075 0.025 0.15
0.1 0.025 0.15
0 0.05 0.15
0.025 0.05 0.15
0.05 0.05 0.15
0.075 0.05 0.15
0.1 0.05 0.15
0 0.075 0.15
0.025 0.075 0.15
0.05 0.075 0.15
0.075 0.075 0.15
0.1 0.075 0.15
0 0.1 0.15
0.025 0.1 0.15
0.05 0.1 0.15
0.075 0.1 0.15
0.1 0.1 0.15
0 0 0.175
0.025 0 0.175
0.05 0 0.175
0.075 0 0.175
0.1 0 0.175
0 0.025 0.175
0.025 0.025 0.175
0.05 0.025 0.175
0.075 0.025 0.175
0.1 0.025 0.175
0 0.05 0.175
0.025 0.05 0.175
0.05 0.05 0.175
0.075 0.05 0.175
0.1 0.05 0.175
0 0.075 0.175
0.025 0.075 0.175
0.05 0.075 0.175
0.075 0.075 0.175
0.1 0.075 0.175
0 0.1 0.175
0.025 0.1 0.175
0.05 0.1 0.175
0.075 0.1 0.175
0.1 0.1 0.175
0 0 0.2
0.025 0 0.2
0.05 0 0.2
0.075 0 0.2
0.1 0 0.2
0 0.025 0.2
0.025 0.025 0.2
0.05 0.025 0.2
0.075 0.025 0.2
0.1 0.025 0.2
0 0.05 0.2
0.025 0.05 0.2
0.05 0.05 0.2
0.075 0.05 0.2
0.1 0.05 0.2
0 0.075 0.2
0.025 0.075 0.2
0.05 0.075 0.2
0.075 0.075 0.2
0.1 0.075 0.2
0 0.1 0.2
0.025 0.1 0.2
0.05 0.1 0.2
0.075 0.1 0.2
0.1 0.1 0.2
0 0 0.225
0.025 0 0.225
0.05 0 0.225
0.075 0 0.225
0.1 0 0.225
0 0.025 0.225
0.025 0.025 0.225
0.05 0.025 0.225
0.075 0.025 0.225
0.1 0.025 0.225
0 0.05 0.225
0.025 0.05 0.225
0.05 0.05 0.225
0.075 0.05 0.225
0.1 0.05 0.225
0 0.075 0.225
0.025 0.075 0.225
0.05 0.075 0.225
0.075 0.075 0.225
0.1 0.075 0.225
0 0.1 0.225
0.025 0.1 0.225
0.05 0.1 0.225
0.075 0.1 0.225
0.1 0.1 0.225
0 0 0.25
0.025 0 0.25
0.05 0 0.25
0.075 0 0.25
0.1 0 0.25
0 0.025 0.25
0.025 0.025 0.25
0.05 0.025 0.25
0.075 0.025 0.25
0.1 0.025 0.25
0 0.05 0.25
0.025 0.05 0.25
0.05 0.05 0.25
0.075 0.05 0.25
0.1 0.05 0.25
0 0.075 0.25
0.025 0.075 0.25
0.05 0.075 0.25
0.075 0.075 0.25
0.1 0.075 0.25
0 0.1 0.25
0.025 0.1 0.25
0.05 0.1 0.25
0.075 0.1 0.25
0.1 0.1 0.25
0 0 0.275
0.025 0 0.275
0.05 0 0.275
0.075 0 0.275
0.1 0 0.275
0 0.025 0.275
0.025 0.025 0.275
0.05 0.025 0.275
0.075 0.025 0.275
0.1 0.025 0.275
0 0.05 0.275
0.025 0.05 0.275
0.05 0.05 0.275
0.075 0.05 0.275
0.1 0.05 0.275
0 0.075 0.275
0.025 0.075 0.275
0.05 0.075 0.275
0.075 0.075 0.275
0.1 0.075 0.275
0 0.1 0.275
0.025 0.1 0.275
0.05 0.1 0.275
0.075 0.1 0.275
0.1 0.1 0.275
0 0 0.3
0.025 0 0.3
0.05 0 0.3
0.075 0 0.3
0.1 0 0.3
0 0.025 0.3
0.025 0.025 0.3
0.05 0.025 0.3
0.075 0.025 0.3
0.1 0.025 0.3
0 0.05 0.3
0.025 0.05 0.3
0.05 0.05 0.3
0.075 0.05 0.3
0.1 0.05 0.3
0 0.075 0.3
0.025 0.075 0.3
0.05 0.075 0.3
0.075 0.075 0.3
0.1 0.075 0.3
0 0.1 0.3
0.025 0.1 0.3
0.05 0.1 0.3
0.075 0.1 0.3
0.1 0.1 0.3
0 0 0.325
0.025 0 0.325
0.05 0 0.325
0.075 0 0.325
0.1 0 0.325
0 0.025 0.325
0.025 0.025 0.325
0.05 0.025 0.325
0.075 0.025 0.325
0.1 0.025 0.325
0 0.05 0.325
0.025 0.05 0.325
0.05 0.05 0.325
0.075 0.05 0.325
0.1 0.05 0.325
0 0.075 0.325
0.025 0.075 0.325
0.05 0.075 0.325
0.075 0.075 0.325
0.1 0.075 0.325
0 0.1 0.325
0.025 0.1 0.325
0.05 0.1 0.325
0.075 0.1 0.325
0.1 0.1 0.325
0 0 0.35
0.025 0 0.35
0.05 0 0.35
0.075 0 0.35
0.1 0 0.35
0 0.025 0.35
0.025 0.025 0.35
0.05 0.025 0.35
0.075 0.025 0.35
0.1 0.025 0.35
0 0.05 0.35
0.025 0.05 0.35
0.05 0.05 0.35
0.075 0.05 0.35
0.1 0.05 0.35
0 0.075 0.35
0.025 0.075 0.35
0.05 0.075 0.35
0.075 0.075 0.35
0.1 0.075 0.35
0 0.1 0.35
0.025 0.1 0.35
0.05 0.1 0.35
0.075 0.1 0.35
0.1 0.1 0.35
0 0 0.375
0.025 0 0.375
0.05 0 0.375
0.075 0 0.375
0.1 0 0.375
0 0.025 0.375
0.025 0.025 0.375
0.05 0.025 0.375
0.075 0.025 0.375
0.1 0.025 0.375
0 0.05 0.375
0.025 0.05 0.375
0.05 0.05 0.375
0.075 0.05 0.375
0.1 0.05 0.375
0 0.075 0.375
0.025 0.075 0.375
0.05 0.075 0.375
0.075 0.075 0.375
0.1 0.075 0.375
0 0.1 0.375
0.025 0.1 0.375
0.05 0.1 0.375
0.075 0.1 0.375
0.1 0.1 0.375
0 0 0.4
0.025 0 0.4
0.05 0 0.4
0.075 0 0.4
0.1 0 0.4
0 0.025 0.4
0.025 0.025 0.4
0.05 0.025 0.4
0.075 0.025 0.4
0.1 0.025 0.4
0 0.05 0.4
0.025 0.05 0.4
0.05 0.05 0.4
0.075 0.05 0.4
0.1 0.05 0.4
0 0.075 0.4
0.025 0.075 0.4
0.05 0.075 0.4
0.075 0.075 0.4
0.1 0.075 0.4
0 0.1 0.4
0.025 0.1 0.4
0.05 0.1 0.4
0.075 0.1 0.4
0.1 0.1 0.4
0 0 0.425
0.025 0 0.425
0.05 0 0.425
0.075 0 0.425
0.1 0 0.425
0 0.025 0.425
0.025 0.025 0.425
0.05 0.025 0.425
0.075 0.025 0.425
0.1 0.025 0.425
0 0.05 0.425
0.025 0.05 0.425
0.05 0.05 0.425
0.075 0.05 0.425
0.1 0.05 0.425
0 0.075 0.425
0.025 0.075 0.425
0.05 0.075 0.425
0.075 0.075 0.425
0.1 0.075 0.425
0 0.1 0.425
0.025 0.1 0.425
0.05 0.1 0.425
0.075 0.1 0.425
0.1 0.1 0.425
0 0 0.45
0.025 0 0.45
0.05 0 0.45
0.075 0 0.45
0.1 0 0.45
0 0.025 0.45
0.025 0.025 0.45
0.05 0.025 0.45
0.075 0.025 0.45
0.1 0.025 0.45
0 0.05 0.45
0.025 0.05 0.45
0.05 0.05 0.45
0.075 0.05 0.45
0.1 0.05 0.45
0 0.075 0.45
0.025 0.075 0.45
0.05 0.075 0.45
0.075 0.075 0.45
0.1 0.075 0.45
0 0.1 0.45
0.025 0.1 0.45
0.05 0.1 0.45
0.075 0.1 0.45
0.1 0.1 0.45
0 0 0.475
0.025 0 0.475
0.05 0 0.475
0.075 0 0.475
0.1 0 0.475
0 0.025 0.475
0.025 0.025 0.475
0.05 0.025 0.475
0.075 0.025 0.475
0.1 0.025 0.475
0 0.05 0.475
0.025 0.05 0.475
0.05 0.05 0.475
0.075 0.05 0.475
0.1 0.05 0.475
0 0.075 0.475
0.025 0.075 0.475
0.05 0.075 0.475
0.075 0.075 0.475
0.1 0.075 0.475
0 0.1 0.475
0.025 0.1 0.475
0.05 0.1 0.475
0.075 0.1 0.475
0.1 0.1 0.475
0 0 0.5
0.025 0 0.5
0.05 0 0.5
0.075 0 0.5
0.1 0 0.5
0 0.025 0.5
0.025 0.025 0.5
0.05 0.025 0.5
0.075 0.025 0.5
0.1 0.025 0.5
0 0.05 0.5
0.025 0.05 0.5
0.05 0.05 0.5
0.075 0.05 0.5
0.1 0.05 0.5
0 0.075 0.5
0.025 0.075 0.5
0.05 0.075 0.5
0.075 0.075 0.5
0.1 0.075 0.5
0 0.1 0.5
0.025 0.1 0.5
0.05 0.1 0.5
0.075 0.1 0.5
0.1 0.1 0.5
0 0 0.525
0.025 0 0.525
0.05 0 0.525
0.075 0 0.525
0.1 0 0.525
0 0.025 0.525
0.025 0.025 0.525
0.05 0.025 0.525
0.075 0.025 0.525
0.1 0.025 0.525
0 0.05 0.525
0.025 0.05 0.525
0.05 0.05 0.525
0.075 0.05 0.525
0.1 0.05 0.525
0 0.075 0.525
0.025 0.075 0.525
0.05 0.075 0.525
0.075 0.075 0.525
0.1 0.075 0.525
0 0.1 0.525
0.025 0.1 0.525
0.05 0.1 0.525
0.075 0.1 0.525
0.1 0.1 0.525
0 0 0.55
0.025 0 0.55
0.05 0 0.55
0.075 0 0.55
0.1 0 0.55
0 0.025 0.55
0.025 0.025 0.55
0.05 0.025 0.55
0.075 0.025 0.55
0.1 0.025 0.55
0 0.05 0.55
0.025 0.05 0.55
0.05 0.05 0.55
0.075 0.05 0.55
0.1 0.05 0.55
0 0.075 0.55
0.025 0.075 0.55
0.05 0.075 0.55
0.075 0.075 0.55
0.1 0.075 0.55
0 0.1 0.55
0.025 0.1 0.55
0.05 0.1 0.55
0.075 0.1 0.55
0.1 0.1 0.55
0 0 0.575
0.025 0 0.575
0.05 0 0.575
0.075 0 0.575
0.1 0 0.575
0 0.025 0.575
0.025 0.025 0.575
0.05 0.025 0.575
0.075 0.025 0.575
0.1 0.025 0.575
0 0.05 0.575
0.025 0.05 0.575
0.05 0.05 0.575
0.075 0.05 0.575
0.1 0.05 0.575
0 0.075 0.575
0.025 0.075 0.575
0.05 0.075 0.575
0.075 0.075 0.575
0.1 0.075 0.575
0 0.1 0.575
0.025 0.1 0.575
0.05 0.1 0.575
0.075 0.1 0.575
0.1 0.1 0.575
0 0 0.6
0.025 0 0.6
0.05 0 0.6
0.075 0 0.6
0.1 0 0.6
0 0.025 0.6
0.025 0.025 0.6
0.05 0.025 0.6
0.075 0.025 0.6
0.1 0.025 0.6
0 0.05 0.6
0.025 0.05 0.6
0.05 0.05 0.6
0.075 0.05 0.6
0.1 0.05 0.6
0 0.075 0.6
0.025 0.075 0.6
0.05 0.075 0.6
0.075 0.075 0.6
0.1 0.075 0.6
0 0.1 0.6
0.025 0.1 0.6
0.05 0.1 0.6
0.075 0.1 0.6
0.1 0.1 0.6
0 0 0.625
0.025 0 0.625
0.05 0 0.625
0.075 0 0.625
0.1 0 0.625
0 0.025 0.625
0.025 0.025 0.625
0.05 0.025 0.625
0.075 0.025 0.625
0.1 0.025 0.625
0 0.05 0.625
0.025 0.05 0.625
0.05 0.05 0.625
0.075 0.05 0.625
0.1 0.05 0.625
0 0.075 0.625
0.025 0.075 0.625
0.05 0.075 0.625
0.075 0.075 0.625
0.1 0.075 0.625
0 0.1 0.625
0.025 0.1 0.625
0.05 0.1 0.625
0.075 0.1 0.625
0.1 0.1 0.625
0 0 0.65
0.025 0 0.65
0.05 0 0.65
0.075 0 0.65
0.1 0 0.65
0 0.025 0.65
0.025 0.025 0.65
0.05 0.025 0.65
0.075 0.025 0.65
0.1 0.025 0.65
0 0.05 0.65
0.025 0.05 0.65
0.05 0.05 0.65
0.075 0.05 0.65
0.1 0.05 0.65
0 0.075 0.65
0.025 0.075 0.65
0.05 0.075 0.65
0.075 0.075 0.65
0.1 0.075 0.65
0 0.1 0.65
0.025 0.1 0.65
0.05 0.1 0.65
0.075 0.1 0.65
0.1 0.1 0.65
0 0 0.675
0.025 0 0.675
0.05 0 0.675
0.075 0 0.675
0.1 0 0.675
[...]
<PointData Vectors="Displacement">
<DataArray type="Float32" Name="Displacement" NumberOfComponents="3" format="ascii">
0 0 0
0 0 0
0 0 0
0 0 0
0 0 0
0 0 0
0 0 0
0 0 0
0 0 0
0 0 0
0 0 0
0 0 0
0 0 0
0 0 0
0 0 0
0 0 0
0 0 0
0 0 0
0 0 0
0 0 0
0 0 0
0 0 0
0 0 0
0 0 0
0 0 0
2.75671e-10 0.00204009 -5.15806e-09
1.17793e-09 0.00204009 -5.32494e-09
1.8699e-09 0.00204009 -5.25833e-09
2.41327e-09 0.00204009 -5.31132e-09
3.42808e-09 0.00204009 -5.42414e-09
1.77682e-10 0.00204009 -5.32662e-09
1.22163e-09 0.00204009 -5.25432e-09
1.80434e-09 0.00204009 -5.28108e-09
2.42359e-09 0.00204009 -5.26797e-09
3.46791e-09 0.00204009 -5.31283e-09
2.06255e-10 0.00204009 -5.22614e-09
1.22146e-09 0.00204009 -5.32833e-09
1.831e-09 0.00204009 -5.28705e-09
2.41956e-09 0.00204009 -5.25314e-09
3.5099e-09 0.00204009 -5.27444e-09
2.41001e-10 0.00204009 -5.28379e-09
1.23321e-09 0.00204009 -5.2492e-09
1.84155e-09 0.00204009 -5.26069e-09
2.42675e-09 0.00204009 -5.23765e-09
3.33904e-09 0.00204009 -5.22576e-09
2.70847e-10 0.0020401 -5.2537e-09
1.23737e-09 0.0020401 -5.22687e-09
1.79184e-09 0.0020401 -5.17851e-09
2.43001e-09 0.0020401 -5.23897e-09
3.33784e-09 0.0020401 -5.25116e-09
1.60775e-09 0.00404588 -1.05537e-08
2.77273e-09 0.00404588 -1.06665e-08
3.61128e-09 0.00404588 -1.06131e-08
4.53593e-09 0.00404588 -1.06635e-08
5.53215e-09 0.00404588 -1.0692e-08
1.57468e-09 0.00404588 -1.05943e-08
2.71679e-09 0.00404588 -1.05992e-08
3.5677e-09 0.00404588 -1.05759e-08
4.54691e-09 0.00404588 -1.06167e-08
5.62315e-09 0.00404588 -1.06811e-08
1.60933e-09 0.00404588 -1.06854e-08
2.70168e-09 0.00404588 -1.06045e-08
3.67446e-09 0.00404588 -1.05906e-08
4.51393e-09 0.00404588 -1.05243e-08
5.54194e-09 0.00404588 -1.04803e-08
1.76279e-09 0.00404588 -1.04906e-08
2.64811e-09 0.00404588 -1.06175e-08
3.67731e-09 0.00404588 -1.05762e-08
4.51532e-09 0.00404588 -1.05449e-08
5.54397e-09 0.00404588 -1.05828e-08
1.79903e-09 0.00404588 -1.05405e-08
2.76408e-09 0.00404588 -1.04904e-08
3.59388e-09 0.00404588 -1.05012e-08
4.635e-09 0.00404588 -1.05771e-08
5.32269e-09 0.00404588 -1.0519e-08
3.17752e-09 0.00598648 -1.56678e-08
4.39287e-09 0.00598648 -1.54084e-08
5.30556e-09 0.00598648 -1.55047e-08
6.22496e-09 0.00598648 -1.54551e-08
7.48337e-09 0.00598648 -1.56012e-08
3.29648e-09 0.00598648 -1.55846e-08
4.38242e-09 0.00598648 -1.55306e-08
5.39989e-09 0.00598648 -1.55256e-08
6.22695e-09 0.00598648 -1.54339e-08
7.34375e-09 0.00598648 -1.54128e-08
3.34316e-09 0.00598648 -1.55419e-08
4.38058e-09 0.00598648 -1.55182e-08
5.33721e-09 0.00598648 -1.54752e-08
6.285e-09 0.00598648 -1.5439e-08
7.17809e-09 0.00598648 -1.55599e-08
3.35973e-09 0.00598648 -1.55582e-08
4.38943e-09 0.00598648 -1.55831e-08
5.32108e-09 0.00598648 -1.54822e-08
6.33746e-09 0.00598648 -1.55283e-08
7.3881e-09 0.00598648 -1.55856e-08
3.2114e-09 0.00598649 -1.56036e-08
4.25567e-09 0.00598648 -1.55632e-08
5.42797e-09 0.00598648 -1.56178e-08
6.31213e-09 0.00598648 -1.55084e-08
7.22447e-09 0.00598648 -1.54522e-08
5.33886e-09 0.0078376 -2.02e-08
6.19207e-09 0.0078376 -1.98199e-08
7.06587e-09 0.0078376 -1.9958e-08
7.72496e-09 0.0078376 -1.99073e-08
8.74997e-09 0.0078376 -1.98639e-08
5.09432e-09 0.0078376 -2.001e-08
6.10791e-09 0.0078376 -2.01026e-08
6.94469e-09 0.0078376 -2.00906e-08
7.84239e-09 0.0078376 -1.99375e-08
8.40575e-09 0.0078376 -1.98054e-08
5.09875e-09 0.0078376 -1.99909e-08
6.13506e-09 0.0078376 -2.01335e-08
7.04341e-09 0.0078376 -2.00831e-08
7.70491e-09 0.0078376 -1.99296e-08
8.73952e-09 0.0078376 -1.99478e-08
5.20894e-09 0.0078376 -2.02912e-08
5.99403e-09 0.0078376 -2.01431e-08
6.94998e-09 0.0078376 -2.00605e-08
7.83084e-09 0.0078376 -2.00431e-08
8.75667e-09 0.0078376 -2.00781e-08
5.01375e-09 0.0078376 -2.02688e-08
6.06917e-09 0.0078376 -2.008e-08
6.76827e-09 0.0078376 -1.99824e-08
8.01599e-09 0.0078376 -2.02062e-08
8.82599e-09 0.0078376 -2.00087e-08
6.88959e-09 0.00958408 -2.36142e-08
7.90672e-09 0.00958408 -2.38471e-08
8.40097e-09 0.00958408 -2.39566e-08
8.92206e-09 0.00958408 -2.36702e-08
9.55685e-09 0.00958408 -2.34984e-08
7.01408e-09 0.00958408 -2.37799e-08
7.70136e-09 0.00958408 -2.38776e-08
8.53058e-09 0.00958408 -2.39198e-08
9.31122e-09 0.00958408 -2.37518e-08
9.79843e-09 0.00958408 -2.37627e-08
6.8901e-09 0.00958408 -2.3952e-08
7.66072e-09 0.00958408 -2.39782e-08
8.65238e-09 0.00958408 -2.38976e-08
9.19399e-09 0.00958408 -2.37821e-08
9.83291e-09 0.00958408 -2.35617e-08
6.78297e-09 0.00958408 -2.39171e-08
7.77694e-09 0.00958408 -2.38623e-08
8.52329e-09 0.00958408 -2.37288e-08
9.17464e-09 0.00958408 -2.37305e-08
1.01208e-08 0.00958408 -2.39002e-08
7.08429e-09 0.00958408 -2.40047e-08
7.50792e-09 0.00958408 -2.40836e-08
8.41581e-09 0.00958408 -2.37693e-08
9.29548e-09 0.00958408 -2.37896e-08
1.01328e-08 0.00958408 -2.37105e-08
9.20074e-09 0.0112217 -2.67752e-08
9.22316e-09 0.0112217 -2.70101e-08
9.87661e-09 0.0112217 -2.6915e-08
1.04495e-08 0.0112217 -2.68697e-08
1.09732e-08 0.0112217 -2.68401e-08
8.49623e-09 0.0112217 -2.6889e-08
9.26724e-09 0.0112217 -2.69659e-08
1.00432e-08 0.0112217 -2.6963e-08
1.05136e-08 0.0112217 -2.68969e-08
1.09567e-08 0.0112217 -2.6773e-08
8.34518e-09 0.0112217 -2.6765e-08
9.27598e-09 0.0112217 -2.69092e-08
1.00146e-08 0.0112217 -2.69286e-08
1.05619e-08 0.0112217 -2.69385e-08
1.10511e-08 0.0112217 -2.68196e-08
8.52271e-09 0.0112217 -2.68226e-08
9.20147e-09 0.0112217 -2.69708e-08
9.91487e-09 0.0112217 -2.69692e-08
1.06052e-08 0.0112217 -2.69825e-08
1.10846e-08 0.0112217 -2.68212e-08
8.34752e-09 0.0112217 -2.67722e-08
9.19011e-09 0.0112217 -2.7013e-08
1.00988e-08 0.0112217 -2.7095e-08
1.03593e-08 0.0112217 -2.66916e-08
1.12295e-08 0.0112217 -2.70971e-08
1.00851e-08 0.0127577 -2.91193e-08
1.06921e-08 0.0127577 -2.9022e-08
1.1399e-08 0.0127577 -2.89699e-08
1.18367e-08 0.0127577 -2.92658e-08
1.18852e-08 0.0127577 -2.9076e-08
1.01898e-08 0.0127577 -2.91269e-08
1.06228e-08 0.0127577 -2.92033e-08
1.12613e-08 0.0127577 -2.90892e-08
1.1743e-08 0.0127577 -2.90849e-08
1.19954e-08 0.0127577 -2.91636e-08
9.91231e-09 0.0127577 -2.89397e-08
1.0708e-08 0.0127577 -2.91513e-08
1.12701e-08 0.0127577 -2.91433e-08
1.1759e-08 0.0127577 -2.91513e-08
1.20389e-08 0.0127577 -2.92517e-08
1.00851e-08 0.0127577 -2.91363e-08
1.06386e-08 0.0127577 -2.91981e-08
1.11326e-08 0.0127577 -2.92733e-08
1.16639e-08 0.0127577 -2.93017e-08
1.19924e-08 0.0127577 -2.93375e-08
9.99607e-09 0.0127577 -2.91072e-08
1.05239e-08 0.0127577 -2.91052e-08
1.1237e-08 0.0127577 -2.92614e-08
1.18095e-08 0.0127577 -2.92958e-08
1.21593e-08 0.0127577 -2.9024e-08
1.16657e-08 0.0142105 -3.05169e-08
1.18822e-08 0.0142105 -3.04595e-08
1.22103e-08 0.0142105 -3.05626e-08
1.23635e-08 0.0142105 -3.03636e-08
1.30641e-08 0.0142105 -3.05874e-08
1.12838e-08 0.0142105 -3.046e-08
1.20008e-08 0.0142105 -3.04325e-08
1.23248e-08 0.0142105 -3.04942e-08
1.2468e-08 0.0142105 -3.04041e-08
1.31205e-08 0.0142105 -3.05463e-08
1.13807e-08 0.0142105 -3.05024e-08
1.18422e-08 0.0142105 -3.05923e-08
1.24474e-08 0.0142105 -3.05824e-08
1.2429e-08 0.0142105 -3.05455e-08
1.32226e-08 0.0142105 -3.05941e-08
1.15697e-08 0.0142105 -3.05114e-08
1.1807e-08 0.0142105 -3.03976e-08
1.22492e-08 0.0142105 -3.04871e-08
1.25311e-08 0.0142105 -3.0585e-08
1.28709e-08 0.0142105 -3.05934e-08
1.15668e-08 0.0142105 -3.03342e-08
1.17052e-08 0.0142105 -3.04792e-08
1.21195e-08 0.0142105 -3.0671e-08
1.25742e-08 0.0142105 -3.0406e-08
1.28103e-08 0.0142105 -3.07173e-08
1.28126e-08 0.015608 -3.09738e-08
1.29009e-08 0.015608 -3.12385e-08
1.31392e-08 0.015608 -3.11103e-08
1.31029e-08 0.015608 -3.1293e-08
1.35318e-08 0.015608 -3.11728e-08
1.26994e-08 0.015608 -3.12458e-08
1.2809e-08 0.015608 -3.12104e-08
1.30891e-08 0.015608 -3.11715e-08
1.32337e-08 0.015608 -3.11961e-08
1.33868e-08 0.015608 -3.12605e-08
1.26114e-08 0.015608 -3.11411e-08
1.28959e-08 0.015608 -3.11475e-08
1.30519e-08 0.015608 -3.12136e-08
1.31548e-08 0.015608 -3.12594e-08
1.35683e-08 0.015608 -3.10515e-08
1.27359e-08 0.015608 -3.12685e-08
1.29223e-08 0.015608 -3.10829e-08
1.30743e-08 0.015608 -3.11399e-08
1.32654e-08 0.015608 -3.10685e-08
1.32598e-08 0.015608 -3.12392e-08
1.30494e-08 0.015608 -3.11479e-08
1.29409e-08 0.015608 -3.10144e-08
1.31694e-08 0.015608 -3.09465e-08
1.30847e-08 0.015608 -3.12276e-08
1.32335e-08 0.015608 -3.11158e-08
1.33108e-08 0.0169841 -3.09977e-08
1.3498e-08 0.0169841 -3.08457e-08
1.37369e-08 0.0169841 -3.10814e-08
1.38171e-08 0.0169841 -3.14316e-08
1.39683e-08 0.0169841 -3.11404e-08
1.33982e-08 0.0169841 -3.09313e-08
1.35493e-08 0.0169841 -3.09563e-08
1.36643e-08 0.0169841 -3.12708e-08
1.36208e-08 0.0169841 -3.128e-08
1.40019e-08 0.0169841 -3.12485e-08
1.33322e-08 0.0169841 -3.10319e-08
1.35451e-08 0.0169841 -3.11134e-08
1.36197e-08 0.0169841 -3.11266e-08
1.36393e-08 0.0169841 -3.10683e-08
1.37417e-08 0.0169841 -3.13317e-08
1.35229e-08 0.0169841 -3.1142e-08
1.36606e-08 0.0169841 -3.12116e-08
1.36018e-08 0.0169841 -3.11837e-08
1.36227e-08 0.0169841 -3.14024e-08
1.36659e-08 0.0169841 -3.11941e-08
1.36207e-08 0.0169841 -3.09623e-08
1.37222e-08 0.0169841 -3.12374e-08
1.36122e-08 0.0169841 -3.11311e-08
1.34746e-08 0.0169841 -3.11013e-08
1.35308e-08 0.0169841 -3.12954e-08
1.41502e-08 0.0183751 -3.01199e-08
1.3721e-08 0.0183751 -3.01453e-08
1.39498e-08 0.0183751 -3.04503e-08
1.3949e-08 0.0183751 -3.02039e-08
1.36744e-08 0.0183751 -3.03585e-08
1.39288e-08 0.0183751 -3.01883e-08
1.38945e-08 0.0183751 -3.04279e-08
1.38164e-08 0.0183751 -3.0385e-08
1.38082e-08 0.0183751 -3.05465e-08
1.39946e-08 0.0183751 -3.0402e-08
1.39036e-08 0.0183751 -3.03196e-08
1.39557e-08 0.0183751 -3.04274e-08
1.38521e-08 0.0183751 -3.05493e-08
1.37299e-08 0.0183751 -3.05933e-08
1.38894e-08 0.0183751 -3.0563e-08
1.39892e-08 0.0183751 -3.03826e-08
1.39728e-08 0.0183751 -3.06176e-08
1.37943e-08 0.0183751 -3.05739e-08
1.36964e-08 0.0183751 -3.0524e-08
1.3634e-08 0.0183751 -3.05105e-08
1.39144e-08 0.0183751 -3.0241e-08
1.39832e-08 0.0183751 -3.06919e-08
1.38044e-08 0.0183751 -3.0686e-08
1.38149e-08 0.0183751 -3.06208e-08
1.36122e-08 0.0183751 -3.03648e-08
1.36254e-08 0.0198148 -2.89911e-08
1.40011e-08 0.0198148 -2.93435e-08
1.36792e-08 0.0198148 -2.90617e-08
1.35482e-08 0.0198148 -2.95799e-08
1.38045e-08 0.0198148 -2.95674e-08
1.42721e-08 0.0198148 -2.91474e-08
1.38637e-08 0.0198148 -2.91476e-08
1.37838e-08 0.0198148 -2.94461e-08
1.3563e-08 0.0198148 -2.93579e-08
1.34796e-08 0.0198148 -2.95318e-08
1.43267e-08 0.0198148 -2.93442e-08
1.39072e-08 0.0198148 -2.94604e-08
1.37976e-08 0.0198148 -2.97226e-08
1.34081e-08 0.0198148 -2.94735e-08
1.36059e-08 0.0198148 -2.94006e-08
1.43145e-08 0.0198148 -2.94074e-08
1.38419e-08 0.0198148 -2.93137e-08
1.38657e-08 0.0198148 -2.94725e-08
1.35388e-08 0.0198148 -2.9482e-08
1.31324e-08 0.0198148 -2.9638e-08
1.42992e-08 0.0198148 -2.93339e-08
1.38349e-08 0.0198148 -2.92085e-08
1.39237e-08 0.0198148 -2.93647e-08
1.3445e-08 0.0198148 -2.94367e-08
1.31369e-08 0.0198148 -2.9423e-08
1.37493e-08 0.0213296 -2.7883e-08
1.36275e-08 0.0213296 -2.77164e-08
1.33134e-08 0.0213296 -2.79399e-08
1.29323e-08 0.0213296 -2.82903e-08
1.35898e-08 0.0213296 -2.82988e-08
1.39253e-08 0.0213296 -2.77996e-08
1.36103e-08 0.0213296 -2.79645e-08
1.34407e-08 0.0213296 -2.809e-08
1.32474e-08 0.0213296 -2.81911e-08
1.30065e-08 0.0213296 -2.79314e-08
1.36733e-08 0.0213296 -2.8155e-08
1.36315e-08 0.0213296 -2.81197e-08
1.35321e-08 0.0213296 -2.8121e-08
1.31846e-08 0.0213296 -2.79708e-08
1.25138e-08 0.0213296 -2.81296e-08
1.38893e-08 0.0213296 -2.76574e-08
1.3797e-08 0.0213296 -2.8166e-08
1.339e-08 0.0213296 -2.78846e-08
1.30269e-08 0.0213296 -2.81653e-08
1.29329e-08 0.0213296 -2.82035e-08
1.4016e-08 0.0213296 -2.79033e-08
1.37374e-08 0.0213296 -2.78745e-08
1.32078e-08 0.0213296 -2.79228e-08
1.30145e-08 0.0213296 -2.78123e-08
1.32501e-08 0.0213296 -2.8219e-08
1.39101e-08 0.0229343 -2.58745e-08
1.30653e-08 0.0229343 -2.61687e-08
1.27141e-08 0.0229343 -2.68784e-08
1.23648e-08 0.0229343 -2.64421e-08
1.19063e-08 0.0229343 -2.62222e-08
1.34712e-08 0.0229343 -2.63493e-08
1.31659e-08 0.0229343 -2.63112e-08
1.27333e-08 0.0229343 -2.65211e-08
1.25199e-08 0.0229343 -2.65789e-08
1.23813e-08 0.0229343 -2.64979e-08
1.33812e-08 0.0229343 -2.63494e-08
1.3198e-08 0.0229343 -2.62242e-08
1.30072e-08 0.0229343 -2.63053e-08
1.25036e-08 0.0229343 -2.68309e-08
1.22527e-08 0.0229343 -2.65537e-08
1.32531e-08 0.0229343 -2.62239e-08
1.3101e-08 0.0229343 -2.61227e-08
1.30031e-08 0.0229343 -2.64419e-08
1.23619e-08 0.0229343 -2.65056e-08
1.2064e-08 0.0229343 -2.6421e-08
1.34923e-08 0.0229343 -2.57723e-08
1.29997e-08 0.0229343 -2.63206e-08
1.27375e-08 0.0229343 -2.61962e-08
1.20081e-08 0.0229343 -2.634e-08
1.25898e-08 0.0229343 -2.63633e-08
1.23698e-08 0.0246284 -2.47087e-08
1.22953e-08 0.0246284 -2.51034e-08
1.1975e-08 0.0246284 -2.5228e-08
1.1979e-08 0.0246284 -2.50709e-08
1.20163e-08 0.0246284 -2.48665e-08
1.26436e-08 0.0246284 -2.48166e-08
1.22783e-08 0.0246284 -2.49853e-08
1.21972e-08 0.0246284 -2.48259e-08
1.17475e-08 0.0246284 -2.51143e-08
1.16329e-08 0.0246284 -2.50881e-08
1.26434e-08 0.0246284 -2.46226e-08
1.26287e-08 0.0246284 -2.47694e-08
1.21441e-08 0.0246284 -2.48977e-08
1.17768e-08 0.0246284 -2.5027e-08
1.17637e-08 0.0246284 -2.52915e-08
1.30252e-08 0.0246284 -2.44486e-08
1.22117e-08 0.0246284 -2.45509e-08
1.20733e-08 0.0246284 -2.48827e-08
1.17079e-08 0.0246284 -2.49645e-08
1.19813e-08 0.0246284 -2.49248e-08
1.32799e-08 0.0246284 -2.44438e-08
1.21102e-08 0.0246284 -2.46547e-08
1.16999e-08 0.0246284 -2.45795e-08
1.15865e-08 0.0246284 -2.49058e-08
1.14342e-08 0.0246284 -2.44512e-08
1.12787e-08 0.0263955 -2.34358e-08
1.15049e-08 0.0263955 -2.3367e-08
1.15343e-08 0.0263955 -2.32668e-08
1.11528e-08 0.0263955 -2.35742e-08
1.11349e-08 0.0263955 -2.35902e-08
1.14874e-08 0.0263955 -2.35383e-08
1.17511e-08 0.0263955 -2.34682e-08
1.15205e-08 0.0263955 -2.35332e-08
1.10432e-08 0.0263955 -2.37174e-08
1.07943e-08 0.0263955 -2.36074e-08
1.2225e-08 0.0263955 -2.31639e-08
1.16626e-08 0.0263955 -2.34064e-08
1.14794e-08 0.0263955 -2.32104e-08
1.10003e-08 0.0263955 -2.34306e-08
1.06648e-08 0.0263955 -2.33107e-08
1.20635e-08 0.0263955 -2.33445e-08
1.13277e-08 0.0263955 -2.32314e-08
1.13852e-08 0.0263955 -2.31239e-08
1.09721e-08 0.0263955 -2.32172e-08
1.1125e-08 0.0263955 -2.33466e-08
1.19473e-08 0.0263955 -2.32602e-08
1.16389e-08 0.0263955 -2.31908e-08
1.10102e-08 0.0263955 -2.34268e-08
1.11841e-08 0.0263955 -2.29239e-08
1.12566e-08 0.0263955 -2.32337e-08
1.06917e-08 0.0282045 -2.15389e-08
1.07825e-08 0.0282045 -2.15605e-08
1.08197e-08 0.0282045 -2.19098e-08
1.02103e-08 0.0282045 -2.21393e-08
9.50519e-09 0.0282045 -2.25994e-08
1.1274e-08 0.0282045 -2.18663e-08
1.07762e-08 0.0282045 -2.18654e-08
1.06559e-08 0.0282045 -2.19907e-08
1.01239e-08 0.0282045 -2.22127e-08
1.01451e-08 0.0282045 -2.22784e-08
1.13815e-08 0.0282045 -2.19534e-08
1.09721e-08 0.0282045 -2.22866e-08
1.06041e-08 0.0282045 -2.19324e-08
1.03601e-08 0.0282045 -2.20419e-08
9.68562e-09 0.0282045 -2.17109e-08
1.13267e-08 0.0282045 -2.21432e-08
1.09652e-08 0.0282045 -2.2149e-08
1.06346e-08 0.0282045 -2.21163e-08
1.03436e-08 0.0282045 -2.18377e-08
9.55522e-09 0.0282045 -2.17541e-08
1.1723e-08 0.0282045 -2.19943e-08
1.07028e-08 0.0282045 -2.22858e-08
1.07816e-08 0.0282045 -2.1793e-08
1.0554e-08 0.0282045 -2.23226e-08
9.76323e-09 0.0282045 -2.18045e-08
9.68689e-09 0.0300133 -2.05218e-08
1.02877e-08 0.0300133 -2.10406e-08
1.02073e-08 0.0300133 -2.06788e-08
9.57403e-09 0.0300133 -2.11219e-08
1.03891e-08 0.0300133 -2.13369e-08
1.03531e-08 0.0300133 -2.07803e-08
1.00004e-08 0.0300133 -2.08652e-08
1.00881e-08 0.0300133 -2.06418e-08
9.4812e-09 0.0300133 -2.11589e-08
9.78261e-09 0.0300133 -2.15156e-08
1.04673e-08 0.0300133 -2.07938e-08
1.01865e-08 0.0300133 -2.07568e-08
1.01431e-08 0.0300133 -2.08359e-08
9.9098e-09 0.0300133 -2.10086e-08
9.33554e-09 0.0300133 -2.09752e-08
1.06012e-08 0.0300133 -2.07163e-08
1.00207e-08 0.0300133 -2.08919e-08
9.99874e-09 0.0300133 -2.07129e-08
9.94183e-09 0.0300133 -2.08378e-08
9.75689e-09 0.0300133 -2.06868e-08
1.12153e-08 0.0300133 -2.04222e-08
9.82401e-09 0.0300133 -2.09976e-08
9.67747e-09 0.0300133 -2.06967e-08
9.62833e-09 0.0300133 -2.07329e-08
1.00256e-08 0.0300133 -2.08052e-08
9.10754e-09 0.0317766 -1.97155e-08
9.74473e-09 0.0317766 -1.96595e-08
9.4969e-09 0.0317766 -2.03157e-08
9.8906e-09 0.0317766 -2.02747e-08
9.45074e-09 0.0317766 -2.0656e-08
9.3888e-09 0.0317766 -1.95476e-08
9.58638e-09 0.0317766 -2.0014e-08
9.63606e-09 0.0317766 -1.98176e-08
9.39381e-09 0.0317766 -2.03866e-08
1.02828e-08 0.0317766 -2.07039e-08
9.2326e-09 0.0317766 -1.96426e-08
9.64066e-09 0.0317766 -1.95076e-08
9.55333e-09 0.0317766 -1.99201e-08
9.42567e-09 0.0317766 -2.01961e-08
9.65409e-09 0.0317766 -2.03848e-08
9.29992e-09 0.0317766 -1.94652e-08
9.45471e-09 0.0317766 -1.96765e-08
9.71063e-09 0.0317766 -1.93721e-08
9.58717e-09 0.0317766 -1.99108e-08
9.53313e-09 0.0317766 -1.97013e-08
9.30826e-09 0.0317766 -1.93299e-08
9.6183e-09 0.0317766 -1.95593e-08
1.00045e-08 0.0317766 -1.98861e-08
9.39843e-09 0.0317766 -1.97504e-08
9.71947e-09 0.0317766 -1.96958e-08
8.90264e-09 0.0334537 -1.86978e-08
9.54868e-09 0.0334537 -1.83283e-08
9.6945e-09 0.0334537 -1.89586e-08
8.70227e-09 0.0334537 -1.95542e-08
1.04546e-08 0.0334537 -1.97786e-08
9.17912e-09 0.0334537 -1.84833e-08
9.4463e-09 0.0334537 -1.86178e-08
9.24198e-09 0.0334537 -1.92404e-08
9.31618e-09 0.0334537 -1.91369e-08
1.00502e-08 0.0334537 -1.946e-08
9.18288e-09 0.0334537 -1.85754e-08
9.01967e-09 0.0334537 -1.85822e-08
9.29911e-09 0.0334537 -1.86335e-08
9.44216e-09 0.0334537 -1.91105e-08
9.84434e-09 0.0334537 -1.9449e-08
9.25654e-09 0.0334537 -1.84942e-08
9.27003e-09 0.0334537 -1.83645e-08
9.29492e-09 0.0334537 -1.85271e-08
9.52249e-09 0.0334537 -1.86371e-08
9.55166e-09 0.0334537 -1.90828e-08
9.21844e-09 0.0334537 -1.8543e-08
9.09865e-09 0.0334537 -1.86564e-08
9.30239e-09 0.0334537 -1.84102e-08
9.41981e-09 0.0334537 -1.86356e-08
8.91687e-09 0.0334537 -1.82897e-08
9.6679e-09 0.0350181 -1.79112e-08
9.20892e-09 0.0350181 -1.79959e-08
9.352e-09 0.0350181 -1.80496e-08
9.04504e-09 0.0350181 -1.79919e-08
1.00231e-08 0.0350181 -1.80655e-08
9.24062e-09 0.0350181 -1.73842e-08
9.2703e-09 0.0350181 -1.77045e-08
9.30128e-09 0.0350181 -1.78865e-08
9.28861e-09 0.0350181 -1.81187e-08
1.01078e-08 0.0350181 -1.78302e-08
9.38337e-09 0.0350181 -1.77804e-08
9.21263e-09 0.0350181 -1.73929e-08
9.22378e-09 0.0350181 -1.76517e-08
9.36758e-09 0.0350181 -1.76121e-08
1.05831e-08 0.0350181 -1.81365e-08
9.46835e-09 0.0350181 -1.75638e-08
9.12991e-09 0.0350181 -1.74063e-08
9.268e-09 0.0350181 -1.73338e-08
9.39892e-09 0.0350181 -1.78302e-08
1.00003e-08 0.0350181 -1.77854e-08
9.64907e-09 0.0350181 -1.72422e-08
9.28042e-09 0.0350181 -1.76498e-08
9.56964e-09 0.0350181 -1.70902e-08
9.6784e-09 0.0350181 -1.74352e-08
9.07462e-09 0.0350181 -1.77342e-08
9.08158e-09 0.0364648 -1.67077e-08
9.73816e-09 0.0364648 -1.73653e-08
9.3683e-09 0.0364648 -1.75037e-08
9.64172e-09 0.0364648 -1.6749e-08
9.37345e-09 0.0364648 -1.67326e-08
9.52838e-09 0.0364648 -1.68854e-08
9.47412e-09 0.0364648 -1.70872e-08
9.45382e-09 0.0364648 -1.7441e-08
9.60491e-09 0.0364648 -1.68994e-08
1.03326e-08 0.0364648 -1.65598e-08
9.17425e-09 0.0364648 -1.69242e-08
9.44539e-09 0.0364648 -1.68865e-08
9.42576e-09 0.0364648 -1.68621e-08
9.68474e-09 0.0364648 -1.69294e-08
1.03694e-08 0.0364648 -1.67071e-08
9.73882e-09 0.0364648 -1.72265e-08
9.63315e-09 0.0364648 -1.67646e-08
9.50181e-09 0.0364648 -1.66655e-08
9.51336e-09 0.0364648 -1.67589e-08
1.02893e-08 0.0364648 -1.71605e-08
1.05023e-08 0.0364648 -1.66701e-08
9.35796e-09 0.0364648 -1.68998e-08
9.22382e-09 0.0364648 -1.67752e-08
1.00979e-08 0.0364648 -1.65014e-08
1.01312e-08 0.0364648 -1.66896e-08
1.00931e-08 0.0378133 -1.6361e-08
9.6232e-09 0.0378133 -1.65749e-08
9.94843e-09 0.0378133 -1.70263e-08
1.02386e-08 0.0378133 -1.6531e-08
1.12728e-08 0.0378133 -1.657e-08
9.55063e-09 0.0378133 -1.64827e-08
9.78003e-09 0.0378133 -1.64584e-08
1.00464e-08 0.0378133 -1.63019e-08
1.00765e-08 0.0378133 -1.6289e-08
1.07526e-08 0.0378133 -1.6048e-08
9.66205e-09 0.0378133 -1.6319e-08
1.00039e-08 0.0378133 -1.62376e-08
1.00792e-08 0.0378133 -1.62427e-08
9.88445e-09 0.0378133 -1.60977e-08
1.10388e-08 0.0378133 -1.60928e-08