<?xml version="1.0"?>
<VTKFile type="UnstructuredGrid" version="0.1" byte_order="LittleEndian">
<UnstructuredGrid>
<Piece NumberOfPoints="1025" NumberOfCells="640">
<Points>
<DataArray type="Float32" NumberOfComponents="3" format="ascii">
0 0 0
0.025 0 0
0.05 0 0
0.075 0 0
0.1 0 0
0 0.025 0
0.025 0.025 0
0.05 0.025 0
0.075 0.025 0
0.1 0.025 0
0 0.05 0
0.025 0.05 0
0.05 0.05 0
0.075 0.05 0
0.1 0.05 0
0 0.075 0
0.025 0.075 0
0.05 0.075 0
0.075 0.075 0
0.1 0.075 0
0 0.1 0
0.025 0.1 0
0.05 0.1 0
0.075 0.1 0
0.1 0.1 0
0 0 0.025
0.025 0 0.025
0.05 0 0.025
0.075 0 0.025
0.1 0 0.025
0 0.025 0.025
0.025 0.025 0.025
0.05 0.025 0.025
0.075 0.025 0.025
0.1 0.025 0.025
0 0.05 0.025
0.025 0.05 0.025
0.05 0.05 0.025
0.075 0.05 0.025
0.1 0.05 0.025
0 0.075 0.025
0.025 0.075 0.025
0.05 0.075 0.025
0.075 0.075 0.025
0.1 0.075 0.025
0 0.1 0.025
0.025 0.1 0.025
0.05 0.1 0.025
0.075 0.1 0.025
0.1 0.1 0.025
0 0 0.05
0.025 0 0.05
0.05 0 0.05
0.075 0 0.05
0.1 0 0.05
0 0.025 0.05
0.025 0.025 0.05
0.05 0.025 0.05
0.075 0.025 0.05
0.1 0.025 0.05
0 0.05 0.05
0.025 0.05 0.05
0.05 0.05 0.05
0.075 0.05 0.05
0.1 0.05 0.05
0 0.075 0.05
0.025 0.075 0.05
0.05 0.075 0.05
0.075 0.075 0.05
0.1 0.075 0.05
0 0.1 0.05
0.025 0.1 0.05
0.05 0.1 0.05
0.075 0.1 0.05
0.1 0.1 0.05
0 0 0.075
0.025 0 0.075
0.05 0 0.075
0.075 0 0.075
0.1 0 0.075
0 0.025 0.075
0.025 0.025 0.075
0.05 0.025 0.075
0.075 0.025 0.075
0.1 0.025 0.075
0 0.05 0.075
0.025 0.05 0.075
0.05 0.05 0.075
0.075 0.05 0.075
0.1 0.05 0.075
0 0.075 0.075
0.025 0.075 0.075
0.05 0.075 0.075
0.075 0.075 0.075
0.1 0.075 0.075
0 0.1 0.075
0.025 0.1 0.075
0.05 0.1 0.075
0.075 0.1 0.075
0.1 0.1 0.075
0 0 0.1
0.025 0 0.1
0.05 0 0.1
0.075 0 0.1
0.1 0 0.1
0 0.025 0.1
0.025 0.025 0.1
0.05 0.025 0.1
0.075 0.025 0.1
0.1 0.025 0.1
0 0.05 0.1
0.025 0.05 0.1
0.05 0.05 0.1
0.075 0.05 0.1
0.1 0.05 0.1
0 0.075 0.1
0.025 0.075 0.1
0.05 0.075 0.1
0.075 0.075 0.1
0.1 0.075 0.1
0 0.1 0.1
0.025 0.1 0.1
0.05 0.1 0.1
0.075 0.1 0.1
0.1 0.1 0.1
0 0 0.125
0.025 0 0.125
0.05 0 0.125
0.075 0 0.125
0.1 0 0.125
0 0.025 0.125
0.025 0.025 0.125
0.05 0.025 0.125
0.075 0.025 0.125
0.1 0.025 0.125
0 0.05 0.125
0.025 0.05 0.125
0.05 0.05 0.125
0.075 0.05 0.125
0.1 0.05 0.125
0 0.075 0.125
0.025 0.075 0.125
0.05 0.075 0.125
0.075 0.075 0.125
0.1 0.075 0.125
0 0.1 0.125
0.025 0.1 0.125
0.05 0.1 0.125
0.075 0.1 0.125
0.1 0.1 0.125
0 0 0.15
0.025 0 0.15
0.05 0 0.15
0.075 0 0.15
0.1 0 0.15
0 0.025 0.15
0.025 0.025 0.15
0.05 0.025 0.15
0.075 0.025 0.15
0.1 0.025 0.15
0 0.05 0.15
0.025 0.05 0.15
0.05 0.05 0.15
0.075 0.05 0.15
0.1 0.05 0.15
0 0.075 0.15
0.025 0.075 0.15
0.05 0.075 0.15
0.075 0.075 0.15
0.1 0.075 0.15
0 0.1 0.15
0.025 0.1 0.15
0.05 0.1 0.15
0.075 0.1 0.15
0.1 0.1 0.15
0 0 0.175
0.025 0 0.175
0.05 0 0.175
0.075 0 0.175
0.1 0 0.175
0 0.025 0.175
0.025 0.025 0.175
0.05 0.025 0.175
0.075 0.025 0.175
0.1 0.025 0.175
0 0.05 0.175
0.025 0.05 0.175
0.05 0.05 0.175
0.075 0.05 0.175
0.1 0.05 0.175
0 0.075 0.175
0.025 0.075 0.175
0.05 0.075 0.175
0.075 0.075 0.175
0.1 0.075 0.175
0 0.1 0.175
0.025 0.1 0.175
0.05 0.1 0.175
0.075 0.1 0.175
0.1 0.1 0.175
0 0 0.2
0.025 0 0.2
0.05 0 0.2
0.075 0 0.2
0.1 0 0.2
0 0.025 0.2
0.025 0.025 0.2
0.05 0.025 0.2
0.075 0.025 0.2
0.1 0.025 0.2
0 0.05 0.2
0.025 0.05 0.2
0.05 0.05 0.2
0.075 0.05 0.2
0.1 0.05 0.2
0 0.075 0.2
0.025 0.075 0.2
0.05 0.075 0.2
0.075 0.075 0.2
0.1 0.075 0.2
0 0.1 0.2
0.025 0.1 0.2
0.05 0.1 0.2
0.075 0.1 0.2
0.1 0.1 0.2
0 0 0.225
0.025 0 0.225
0.05 0 0.225
0.075 0 0.225
0.1 0 0.225
0 0.025 0.225
0.025 0.025 0.225
0.05 0.025 0.225
0.075 0.025 0.225
0.1 0.025 0.225
0 0.05 0.225
0.025 0.05 0.225
0.05 0.05 0.225
0.075 0.05 0.225
0.1 0.05 0.225
0 0.075 0.225
0.025 0.075 0.225
0.05 0.075 0.225
0.075 0.075 0.225
0.1 0.075 0.225
0 0.1 0.225
0.025 0.1 0.225
0.05 0.1 0.225
0.075 0.1 0.225
0.1 0.1 0.225
0 0 0.25
0.025 0 0.25
0.05 0 0.25
0.075 0 0.25
0.1 0 0.25
0 0.025 0.25
0.025 0.025 0.25
0.05 0.025 0.25
0.075 0.025 0.25
0.1 0.025 0.25
0 0.05 0.25
0.025 0.05 0.25
0.05 0.05 0.25
0.075 0.05 0.25
0.1 0.05 0.25
0 0.075 0.25
0.025 0.075 0.25
0.05 0.075 0.25
0.075 0.075 0.25
0.1 0.075 0.25
0 0.1 0.25
0.025 0.1 0.25
0.05 0.1 0.25
0.075 0.1 0.25
0.1 0.1 0.25
0 0 0.275
0.025 0 0.275
0.05 0 0.275
0.075 0 0.275
0.1 0 0.275
0 0.025 0.275
0.025 0.025 0.275
0.05 0.025 0.275
0.075 0.025 0.275
0.1 0.025 0.275
0 0.05 0.275
0.025 0.05 0.275
0.05 0.05 0.275
0.075 0.05 0.275
0.1 0.05 0.275
0 0.075 0.275
0.025 0.075 0.275
0.05 0.075 0.275
0.075 0.075 0.275
0.1 0.075 0.275
0 0.1 0.275
0.025 0.1 0.275
0.05 0.1 0.275
0.075 0.1 0.275
0.1 0.1 0.275
0 0 0.3
0.025 0 0.3
0.05 0 0.3
0.075 0 0.3
0.1 0 0.3
0 0.025 0.3
0.025 0.025 0.3
0.05 0.025 0.3
0.075 0.025 0.3
0.1 0.025 0.3
0 0.05 0.3
0.025 0.05 0.3
0.05 0.05 0.3
0.075 0.05 0.3
0.1 0.05 0.3
0 0.075 0.3
0.025 0.075 0.3
0.05 0.075 0.3
0.075 0.075 0.3
0.1 0.075 0.3
0 0.1 0.3
0.025 0.1 0.3
0.05 0.1 0.3
0.075 0.1 0.3
0.1 0.1 0.3
0 0 0.325
0.025 0 0.325
0.05 0 0.325
0.075 0 0.325
0.1 0 0.325
0 0.025 0.325
0.025 0.025 0.325
0.05 0.025 0.325
0.075 0.025 0.325
0.1 0.025 0.325
0 0.05 0.325
0.025 0.05 0.325
0.05 0.05 0.325
0.075 0.05 0.325
0.1 0.05 0.325
0 0.075 0.325
0.025 0.075 0.325
0.05 0.075 0.325
0.075 0.075 0.325
0.1 0.075 0.325
0 0.1 0.325
0.025 0.1 0.325
0.05 0.1 0.325
0.075 0.1 0.325
0.1 0.1 0.325
0 0 0.35
0.025 0 0.35
0.05 0 0.35
0.075 0 0.35
0.1 0 0.35
0 0.025 0.35
0.025 0.025 0.35
0.05 0.025 0.35
0.075 0.025 0.35
0.1 0.025 0.35
0 0.05 0.35
0.025 0.05 0.35
0.05 0.05 0.35
0.075 0.05 0.35
0.1 0.05 0.35
0 0.075 0.35
0.025 0.075 0.35
0.05 0.075 0.35
0.075 0.075 0.35
0.1 0.075 0.35
0 0.1 0.35
0.025 0.1 0.35
0.05 0.1 0.35
0.075 0.1 0.35
0.1 0.1 0.35
0 0 0.375
0.025 0 0.375
0.05 0 0.375
0.075 0 0.375
0.1 0 0.375
0 0.025 0.375
0.025 0.025 0.375
0.05 0.025 0.375
0.075 0.025 0.375
0.1 0.025 0.375
0 0.05 0.375
0.025 0.05 0.375
0.05 0.05 0.375
0.075 0.05 0.375
0.1 0.05 0.375
0 0.075 0.375
0.025 0.075 0.375
0.05 0.075 0.375
0.075 0.075 0.375
0.1 0.075 0.375
0 0.1 0.375
0.025 0.1 0.375
0.05 0.1 0.375
0.075 0.1 0.375
0.1 0.1 0.375
0 0 0.4
0.025 0 0.4
0.05 0 0.4
0.075 0 0.4
0.1 0 0.4
0 0.025 0.4
0.025 0.025 0.4
0.05 0.025 0.4
0.075 0.025 0.4
0.1 0.025 0.4
0 0.05 0.4
0.025 0.05 0.4
0.05 0.05 0.4
0.075 0.05 0.4
0.1 0.05 0.4
0 0.075 0.4
0.025 0.075 0.4
0.05 0.075 0.4
0.075 0.075 0.4
0.1 0.075 0.4
0 0.1 0.4
0.025 0.1 0.4
0.05 0.1 0.4
0.075 0.1 0.4
0.1 0.1 0.4
0 0 0.425
0.025 0 0.425
0.05 0 0.425
0.075 0 0.425
0.1 0 0.425
0 0.025 0.425
0.025 0.025 0.425
0.05 0.025 0.425
0.075 0.025 0.425
0.1 0.025 0.425
0 0.05 0.425
0.025 0.05 0.425
0.05 0.05 0.425
0.075 0.05 0.425
0.1 0.05 0.425
0 0.075 0.425
0.025 0.075 0.425
0.05 0.075 0.425
0.075 0.075 0.425
0.1 0.075 0.425
0 0.1 0.425
0.025 0.1 0.425
0.05 0.1 0.425
0.075 0.1 0.425
0.1 0.1 0.425
0 0 0.45
0.025 0 0.45
0.05 0 0.45
0.075 0 0.45
0.1 0 0.45
0 0.025 0.45
0.025 0.025 0.45
0.05 0.025 0.45
0.075 0.025 0.45
0.1 0.025 0.45
0 0.05 0.45
0.025 0.05 0.45
0.05 0.05 0.45
0.075 0.05 0.45
0.1 0.05 0.45
0 0.075 0.45
0.025 0.075 0.45
0.05 0.075 0.45
0.075 0.075 0.45
0.1 0.075 0.45
0 0.1 0.45
0.025 0.1 0.45
0.05 0.1 0.45
0.075 0.1 0.45
0.1 0.1 0.45
0 0 0.475
0.025 0 0.475
0.05 0 0.475
0.075 0 0.475
0.1 0 0.475
0 0.025 0.475
0.025 0.025 0.475
0.05 0.025 0.475
0.075 0.025 0.475
0.1 0.025 0.475
0 0.05 0.475
0.025 0.05 0.475
0.05 0.05 0.475
0.075 0.05 0.475
0.1 0.05 0.475
0 0.075 0.475
0.025 0.075 0.475
0.05 0.075 0.475
0.075 0.075 0.475
0.1 0.075 0.475
0 0.1 0.475
0.025 0.1 0.475
0.05 0.1 0.475
0.075 0.1 0.475
0.1 0.1 0.475
0 0 0.5
0.025 0 0.5
0.05 0 0.5
0.075 0 0.5
0.1 0 0.5
0 0.025 0.5
0.025 0.025 0.5
0.05 0.025 0.5
0.075 0.025 0.5
0.1 0.025 0.5
0 0.05 0.5
0.025 0.05 0.5
0.05 0.05 0.5
0.075 0.05 0.5
0.1 0.05 0.5
0 0.075 0.5
0.025 0.075 0.5
0.05 0.075 0.5
0.075 0.075 0.5
0.1 0.075 0.5
0 0.1 0.5
0.025 0.1 0.5
0.05 0.1 0.5
0.075 0.1 0.5
0.1 0.1 0.5
0 0 0.525
0.025 0 0.525
0.05 0 0.525
0.075 0 0.525
0.1 0 0.525
0 0.025 0.525
0.025 0.025 0.525
0.05 0.025 0.525
0.075 0.025 0.525
0.1 0.025 0.525
0 0.05 0.525
0.025 0.05 0.525
0.05 0.05 0.525
0.075 0.05 0.525
0.1 0.05 0.525
0 0.075 0.525
0.025 0.075 0.525
0.05 0.075 0.525
0.075 0.075 0.525
0.1 0.075 0.525
0 0.1 0.525
0.025 0.1 0.525
0.05 0.1 0.525
0.075 0.1 0.525
0.1 0.1 0.525
0 0 0.55
0.025 0 0.55
0.05 0 0.55
0.075 0 0.55
0.1 0 0.55
0 0.025 0.55
0.025 0.025 0.55
0.05 0.025 0.55
0.075 0.025 0.55
0.1 0.025 0.55
0 0.05 0.55
0.025 0.05 0.55
0.05 0.05 0.55
0.075 0.05 0.55
0.1 0.05 0.55
0 0.075 0.55
0.025 0.075 0.55
0.05 0.075 0.55
0.075 0.075 0.55
0.1 0.075 0.55
0 0.1 0.55
0.025 0.1 0.55
0.05 0.1 0.55
0.075 0.1 0.55
0.1 0.1 0.55
0 0 0.575
0.025 0 0.575
0.05 0 0.575
0.075 0 0.575
0.1 0 0.575
0 0.025 0.575
0.025 0.025 0.575
0.05 0.025 0.575
0.075 0.025 0.575
0.1 0.025 0.575
0 0.05 0.575
0.025 0.05 0.575
0.05 0.05 0.575
0.075 0.05 0.575
0.1 0.05 0.575
0 0.075 0.575
0.025 0.075 0.575
0.05 0.075 0.575
0.075 0.075 0.575
0.1 0.075 0.575
0 0.1 0.575
0.025 0.1 0.575
0.05 0.1 0.575
0.075 0.1 0.575
0.1 0.1 0.575
0 0 0.6
0.025 0 0.6
0.05 0 0.6
0.075 0 0.6
0.1 0 0.6
0 0.025 0.6
0.025 0.025 0.6
0.05 0.025 0.6
0.075 0.025 0.6
0.1 0.025 0.6
0 0.05 0.6
0.025 0.05 0.6
0.05 0.05 0.6
0.075 0.05 0.6
0.1 0.05 0.6
0 0.075 0.6
0.025 0.075 0.6
0.05 0.075 0.6
0.075 0.075 0.6
0.1 0.075 0.6
0 0.1 0.6
0.025 0.1 0.6
0.05 0.1 0.6
0.075 0.1 0.6
0.1 0.1 0.6
0 0 0.625
0.025 0 0.625
0.05 0 0.625
0.075 0 0.625
0.1 0 0.625
0 0.025 0.625
0.025 0.025 0.625
0.05 0.025 0.625
0.075 0.025 0.625
0.1 0.025 0.625
0 0.05 0.625
0.025 0.05 0.625
0.05 0.05 0.625
0.075 0.05 0.625
0.1 0.05 0.625
0 0.075 0.625
0.025 0.075 0.625
0.05 0.075 0.625
0.075 0.075 0.625
0.1 0.075 0.625
0 0.1 0.625
0.025 0.1 0.625
0.05 0.1 0.625
0.075 0.1 0.625
0.1 0.1 0.625
0 0 0.65
0.025 0 0.65
0.05 0 0.65
0.075 0 0.65
0.1 0 0.65
0 0.025 0.65
0.025 0.025 0.65
0.05 0.025 0.65
0.075 0.025 0.65
0.1 0.025 0.65
0 0.05 0.65
0.025 0.05 0.65
0.05 0.05 0.65
0.075 0.05 0.65
0.1 0.05 0.65
0 0.075 0.65
0.025 0.075 0.65
0.05 0.075 0.65
0.075 0.075 0.65
0.1 0.075 0.65
0 0.1 0.65
0.025 0.1 0.65
0.05 0.1 0.65
0.075 0.1 0.65
0.1 0.1 0.65
0 0 0.675
0.025 0 0.675
0.05 0 0.675
0.075 0 0.675
0.1 0 0.675
[...]
<PointData Vectors="Displacement">
<DataArray type="Float32" Name="Displacement" NumberOfComponents="3" format="ascii">
0 0 0
0 0 0
0 0 0
0 0 0
0 0 0
0 0 0
0 0 0
0 0 0
0 0 0
0 0 0
0 0 0
0 0 0
0 0 0
0 0 0
0 0 0
0 0 0
0 0 0
0 0 0
0 0 0
0 0 0
0 0 0
0 0 0
0 0 0
0 0 0
0 0 0
-3.67525e-10 0.000706016 -1.1701e-09
-1.59842e-10 0.000706016 -1.15413e-09
-2.89331e-11 0.000706016 -1.16227e-09
9.39711e-11 0.000706016 -1.16392e-09
3.16323e-10 0.000706016 -1.1649e-09
-3.68099e-10 0.000706017 -1.16016e-09
-1.5804e-10 0.000706016 -1.16597e-09
-3.16658e-11 0.000706016 -1.16403e-09
9.55009e-11 0.000706017 -1.16217e-09
3.43846e-10 0.000706016 -1.17423e-09
-3.88784e-10 0.000706017 -1.15782e-09
-1.60907e-10 0.000706017 -1.16137e-09
-2.72271e-11 0.000706017 -1.17006e-09
9.73732e-11 0.000706017 -1.16317e-09
3.26905e-10 0.000706016 -1.16069e-09
-3.64383e-10 0.000706017 -1.14886e-09
-1.57697e-10 0.000706017 -1.15446e-09
-2.9138e-11 0.000706017 -1.14564e-09
9.58333e-11 0.000706017 -1.14663e-09
2.99856e-10 0.000706016 -1.15231e-09
-3.39529e-10 0.000706017 -1.13762e-09
-1.50238e-10 0.000706017 -1.13252e-09
-3.93883e-11 0.000706017 -1.13879e-09
8.81899e-11 0.000706017 -1.13473e-09
2.83751e-10 0.000706017 -1.13999e-09
-4.89095e-10 0.00141308 -2.28537e-09
-2.98702e-10 0.00141308 -2.29835e-09
-1.17736e-10 0.00141308 -2.24924e-09
7.87805e-11 0.00141308 -2.30224e-09
3.17095e-10 0.00141308 -2.31592e-09
-5.29738e-10 0.00141308 -2.29646e-09
-2.8812e-10 0.00141308 -2.28268e-09
-1.20919e-10 0.00141308 -2.28371e-09
7.71161e-11 0.00141308 -2.29065e-09
3.03502e-10 0.00141308 -2.28715e-09
-5.1632e-10 0.00141308 -2.27753e-09
-3.05749e-10 0.00141308 -2.27731e-09
-1.12721e-10 0.00141308 -2.28445e-09
6.28657e-11 0.00141308 -2.28083e-09
3.0024e-10 0.00141308 -2.28798e-09
-5.02974e-10 0.00141308 -2.27353e-09
-3.05315e-10 0.00141308 -2.26416e-09
-1.10393e-10 0.00141308 -2.25221e-09
4.2093e-11 0.00141308 -2.27397e-09
2.67096e-10 0.00141308 -2.28258e-09
-4.8836e-10 0.00141308 -2.27008e-09
-2.91897e-10 0.00141308 -2.24964e-09
-1.19822e-10 0.00141308 -2.2403e-09
6.0028e-11 0.00141308 -2.24951e-09
2.26722e-10 0.00141308 -2.28067e-09
-7.17258e-10 0.00212275 -3.22021e-09
-4.90219e-10 0.00212275 -3.24286e-09
-3.13292e-10 0.00212275 -3.21067e-09
-1.67262e-10 0.00212275 -3.23958e-09
1.08018e-10 0.00212275 -3.20999e-09
-6.96315e-10 0.00212275 -3.23569e-09
-5.007e-10 0.00212275 -3.23105e-09
-2.89056e-10 0.00212275 -3.2206e-09
-1.56633e-10 0.00212275 -3.21941e-09
7.47131e-11 0.00212275 -3.2399e-09
-7.07162e-10 0.00212275 -3.25741e-09
-4.85894e-10 0.00212275 -3.23488e-09
-3.23181e-10 0.00212275 -3.23422e-09
-1.43956e-10 0.00212275 -3.2392e-09
7.4297e-11 0.00212275 -3.25435e-09
-6.44103e-10 0.00212275 -3.23616e-09
-4.81425e-10 0.00212275 -3.23972e-09
-3.21925e-10 0.00212275 -3.22165e-09
-1.59264e-10 0.00212275 -3.23068e-09
1.16667e-11 0.00212275 -3.23322e-09
-6.48743e-10 0.00212275 -3.2283e-09
-4.90501e-10 0.00212275 -3.20587e-09
-3.19248e-10 0.00212275 -3.23061e-09
-1.78487e-10 0.00212275 -3.26809e-09
-1.13523e-11 0.00212275 -3.2418e-09
-9.86369e-10 0.00283751 -3.92978e-09
-8.18012e-10 0.00283751 -3.89664e-09
-6.6781e-10 0.00283751 -3.88064e-09
-5.48631e-10 0.00283751 -3.9319e-09
-3.35223e-10 0.00283751 -3.90792e-09
-9.77348e-10 0.00283751 -3.91273e-09
-7.98789e-10 0.00283751 -3.93334e-09
-6.82513e-10 0.00283751 -3.91348e-09
-5.4285e-10 0.00283751 -3.91849e-09
-3.66722e-10 0.00283751 -3.93213e-09
-1.01384e-09 0.00283751 -3.96038e-09
-8.21651e-10 0.00283751 -3.96106e-09
-6.52321e-10 0.00283751 -3.93183e-09
-5.52831e-10 0.00283751 -3.95543e-09
-3.27355e-10 0.00283751 -3.92515e-09
-9.16789e-10 0.00283751 -3.96429e-09
-8.26322e-10 0.00283751 -3.96664e-09
-6.77754e-10 0.00283751 -3.97699e-09
-5.37914e-10 0.00283751 -3.93694e-09
-4.22534e-10 0.00283751 -3.9482e-09
-8.76854e-10 0.00283751 -3.9236e-09
-7.93543e-10 0.00283751 -3.9585e-09
-6.73912e-10 0.00283751 -3.99653e-09
-5.54373e-10 0.00283751 -3.93092e-09
-5.28238e-10 0.00283751 -3.98648e-09
-1.4158e-09 0.0035611 -4.27792e-09
-1.31342e-09 0.0035611 -4.27297e-09
-1.22675e-09 0.0035611 -4.32376e-09
-1.1385e-09 0.0035611 -4.2685e-09
-1.0198e-09 0.0035611 -4.36126e-09
-1.45481e-09 0.0035611 -4.32516e-09
-1.31601e-09 0.0035611 -4.27622e-09
-1.20244e-09 0.0035611 -4.33935e-09
-1.17391e-09 0.0035611 -4.28464e-09
-9.98242e-10 0.0035611 -4.26591e-09
-1.43868e-09 0.0035611 -4.32434e-09
-1.33358e-09 0.0035611 -4.31452e-09
-1.20327e-09 0.0035611 -4.30358e-09
-1.14943e-09 0.0035611 -4.2722e-09
-1.05388e-09 0.0035611 -4.27364e-09
-1.42726e-09 0.0035611 -4.35608e-09
-1.31819e-09 0.0035611 -4.3441e-09
-1.20041e-09 0.0035611 -4.30209e-09
-1.15641e-09 0.0035611 -4.2943e-09
-1.06408e-09 0.0035611 -4.31212e-09
-1.42853e-09 0.0035611 -4.33089e-09
-1.25433e-09 0.0035611 -4.35296e-09
-1.20937e-09 0.0035611 -4.34557e-09
-1.18824e-09 0.0035611 -4.36285e-09
-1.00736e-09 0.0035611 -4.31438e-09
-2.05099e-09 0.00429853 -4.26963e-09
-2.1361e-09 0.00429853 -4.37177e-09
-1.91901e-09 0.00429853 -4.39194e-09
-1.99058e-09 0.00429853 -4.36974e-09
-1.78139e-09 0.00429853 -4.24204e-09
-2.0887e-09 0.00429853 -4.27496e-09
-2.0306e-09 0.00429853 -4.30862e-09
-1.9882e-09 0.00429853 -4.32302e-09
-1.97063e-09 0.00429853 -4.32522e-09
-1.98519e-09 0.00429853 -4.30502e-09
-2.11648e-09 0.00429853 -4.29127e-09
-2.01672e-09 0.00429853 -4.30108e-09
-1.97032e-09 0.00429853 -4.3267e-09
-1.97297e-09 0.00429853 -4.28475e-09
-2.03935e-09 0.00429853 -4.29943e-09
-2.07287e-09 0.00429853 -4.31087e-09
-2.02509e-09 0.00429853 -4.32735e-09
-1.95834e-09 0.00429853 -4.28823e-09
-1.99609e-09 0.00429853 -4.31755e-09
-2.00528e-09 0.00429853 -4.29705e-09
-2.04854e-09 0.00429853 -4.38069e-09
-1.98238e-09 0.00429853 -4.34339e-09
-1.98668e-09 0.00429853 -4.30409e-09
-2.01155e-09 0.00429853 -4.30027e-09
-1.86265e-09 0.00429853 -4.37014e-09
-3.00857e-09 0.00505588 -3.95307e-09
-2.98951e-09 0.00505588 -3.84977e-09
-2.94634e-09 0.00505588 -3.92079e-09
-2.96691e-09 0.00505588 -3.9658e-09
-3.06367e-09 0.00505588 -3.99199e-09
-2.97407e-09 0.00505588 -3.88073e-09
-2.99244e-09 0.00505588 -3.93299e-09
-2.99731e-09 0.00505588 -3.96624e-09
-3.03184e-09 0.00505588 -3.91724e-09
-3.08097e-09 0.00505588 -3.95588e-09
-3.00309e-09 0.00505588 -3.86193e-09
-2.97537e-09 0.00505588 -3.92718e-09
-2.99061e-09 0.00505588 -3.96542e-09
-3.03434e-09 0.00505588 -3.93812e-09
-3.06695e-09 0.00505588 -3.96529e-09
-2.88554e-09 0.00505588 -3.9539e-09
-2.94197e-09 0.00505588 -3.93057e-09
-2.98641e-09 0.00505588 -3.96806e-09
-3.03311e-09 0.00505588 -3.92228e-09
-3.12335e-09 0.00505588 -3.97774e-09
-2.94334e-09 0.00505588 -3.91758e-09
-2.89714e-09 0.00505588 -4.025e-09
-3.01731e-09 0.00505588 -3.94038e-09
-3.07062e-09 0.00505588 -3.97668e-09
-3.09948e-09 0.00505588 -3.96617e-09
-4.06984e-09 0.00583979 -3.08411e-09
-4.17602e-09 0.00583979 -3.20418e-09
-4.2142e-09 0.00583979 -3.21693e-09
-4.35118e-09 0.00583979 -3.26743e-09
-4.34219e-09 0.00583979 -3.27693e-09
-4.16912e-09 0.00583979 -3.19251e-09
-4.12194e-09 0.00583979 -3.19448e-09
-4.23128e-09 0.00583979 -3.25172e-09
-4.35293e-09 0.00583979 -3.26015e-09
-4.35041e-09 0.00583979 -3.27004e-09
-4.12755e-09 0.00583979 -3.2128e-09
-4.14825e-09 0.00583979 -3.22276e-09
-4.16407e-09 0.00583979 -3.29235e-09
-4.36399e-09 0.00583979 -3.30798e-09
-4.33679e-09 0.00583979 -3.24895e-09
-4.02663e-09 0.00583979 -3.19476e-09
-4.13071e-09 0.00583979 -3.2538e-09
-4.19948e-09 0.00583979 -3.24869e-09
-4.3468e-09 0.00583979 -3.2613e-09
-4.43793e-09 0.00583979 -3.2398e-09
-3.79427e-09 0.00583979 -3.26012e-09
-4.15829e-09 0.00583979 -3.14525e-09
-4.2037e-09 0.00583979 -3.35548e-09
-4.26247e-09 0.00583979 -3.22418e-09
-4.26889e-09 0.00583979 -3.23379e-09
-5.23808e-09 0.00665672 -2.31166e-09
-5.44017e-09 0.00665672 -2.3962e-09
-5.64769e-09 0.00665672 -2.37111e-09
-5.77671e-09 0.00665672 -2.28202e-09
-5.91858e-09 0.00665672 -2.42822e-09
-5.30261e-09 0.00665672 -2.29838e-09
-5.51358e-09 0.00665672 -2.26771e-09
-5.64776e-09 0.00665672 -2.3415e-09
-5.77787e-09 0.00665672 -2.40378e-09
-5.88101e-09 0.00665672 -2.35389e-09
-5.38536e-09 0.00665672 -2.25122e-09
-5.51878e-09 0.00665672 -2.30345e-09
-5.60286e-09 0.00665672 -2.37668e-09
-5.75311e-09 0.00665672 -2.3725e-09
-5.84028e-09 0.00665672 -2.25313e-09
-5.34489e-09 0.00665672 -2.37105e-09
-5.49332e-09 0.00665672 -2.28693e-09
-5.60245e-09 0.00665672 -2.3389e-09
-5.73153e-09 0.00665672 -2.27398e-09
-5.92773e-09 0.00665672 -2.23882e-09
-5.29342e-09 0.00665672 -2.27256e-09
-5.44581e-09 0.00665672 -2.30839e-09
-5.60006e-09 0.00665672 -2.26498e-09
-5.73255e-09 0.00665672 -2.26199e-09
-5.98206e-09 0.00665672 -2.2409e-09
-6.74761e-09 0.00751206 -1.20853e-09
-6.98976e-09 0.00751206 -1.16641e-09
-7.10194e-09 0.00751206 -1.27407e-09
-7.27526e-09 0.00751206 -1.24684e-09
-7.36221e-09 0.00751206 -1.17726e-09
-6.89505e-09 0.00751206 -1.25315e-09
-7.00882e-09 0.00751206 -1.21291e-09
-7.1921e-09 0.00751206 -1.2443e-09
-7.41907e-09 0.00751206 -1.20258e-09
-7.50341e-09 0.00751206 -1.21366e-09
-6.92228e-09 0.00751206 -1.16127e-09
-7.05839e-09 0.00751206 -1.19347e-09
-7.2192e-09 0.00751206 -1.14931e-09
-7.34952e-09 0.00751206 -1.16251e-09
-7.39907e-09 0.00751206 -1.22311e-09
-6.92215e-09 0.00751206 -1.17181e-09
-7.07001e-09 0.00751206 -1.19519e-09
-7.16651e-09 0.00751206 -1.14431e-09
-7.3428e-09 0.00751206 -1.2123e-09
-7.51282e-09 0.00751206 -1.15377e-09
-6.6859e-09 0.00751206 -1.11341e-09
-7.02469e-09 0.00751206 -1.13196e-09
-7.07624e-09 0.00751206 -1.1178e-09
-7.41093e-09 0.00751206 -1.13938e-09
-7.41675e-09 0.00751206 -1.09808e-09
-8.29097e-09 0.00840929 -4.57678e-12
-8.75893e-09 0.00840929 -2.95275e-11
-8.85314e-09 0.00840929 -6.21183e-11
-9.09982e-09 0.00840929 8.17062e-11
-9.34917e-09 0.00840929 1.0534e-10
-8.53932e-09 0.00840929 5.88107e-11
-8.75101e-09 0.00840929 -2.2176e-11
-8.87662e-09 0.00840929 -2.48311e-11
-9.00445e-09 0.00840929 -8.83129e-11
-9.16584e-09 0.00840929 7.0707e-11
-8.6605e-09 0.00840929 5.01341e-11
-8.69194e-09 0.00840929 4.31171e-11
-8.91085e-09 0.00840929 3.67226e-11
-9.11759e-09 0.00840929 3.95399e-11
-9.07219e-09 0.00840929 3.36287e-12
-8.64555e-09 0.00840929 1.05523e-10
-8.66124e-09 0.00840929 1.09289e-10
-8.86576e-09 0.00840929 3.46434e-11
-9.09087e-09 0.00840929 1.07364e-10
-9.20674e-09 0.00840929 5.99329e-11
-8.68847e-09 0.00840929 4.03642e-11
-8.74712e-09 0.00840929 4.027e-11
-8.83943e-09 0.00840929 1.12761e-10
-8.92658e-09 0.00840929 1.3652e-10
-9.34719e-09 0.00840929 2.06751e-10
-1.0066e-08 0.00934949 1.08444e-09
-1.05426e-08 0.00934949 1.14274e-09
-1.06619e-08 0.00934949 1.19746e-09
-1.07027e-08 0.00934949 1.04159e-09
-1.1003e-08 0.00934949 1.10285e-09
-1.02554e-08 0.00934949 1.24794e-09
-1.04673e-08 0.00934949 1.21658e-09
-1.06256e-08 0.00934949 1.245e-09
-1.08414e-08 0.00934949 1.18053e-09
-1.08815e-08 0.00934949 1.16228e-09
-1.02738e-08 0.00934949 1.13453e-09
-1.04477e-08 0.00934949 1.18638e-09
-1.059e-08 0.00934949 1.14341e-09
-1.08708e-08 0.00934949 1.25969e-09
-1.07979e-08 0.00934949 1.14278e-09
-1.01195e-08 0.00934949 1.20841e-09
-1.04553e-08 0.00934949 1.2348e-09
-1.05566e-08 0.00934949 1.28681e-09
-1.08487e-08 0.00934949 1.11514e-09
-1.12202e-08 0.00934949 1.19101e-09
-1.00807e-08 0.00934949 1.30843e-09
-1.05122e-08 0.00934949 1.37566e-09
-1.04545e-08 0.00934949 1.0901e-09
-1.08921e-08 0.00934949 1.21287e-09
-1.12475e-08 0.00934949 1.21531e-09
-1.20805e-08 0.0103313 2.19786e-09
-1.22695e-08 0.0103313 2.23422e-09
-1.24168e-08 0.0103313 2.34618e-09
-1.26248e-08 0.0103313 2.11391e-09
-1.25067e-08 0.0103313 2.01698e-09
-1.19417e-08 0.0103313 2.20798e-09
-1.21335e-08 0.0103313 2.21991e-09
-1.24376e-08 0.0103313 2.11994e-09
-1.24796e-08 0.0103313 2.21773e-09
-1.2794e-08 0.0103313 2.13151e-09
-1.19257e-08 0.0103313 2.22747e-09
-1.21617e-08 0.0103313 2.23963e-09
-1.22586e-08 0.0103313 2.28176e-09
-1.25038e-08 0.0103313 2.22119e-09
-1.28154e-08 0.0103313 2.23936e-09
-1.19533e-08 0.0103313 2.22173e-09
-1.20865e-08 0.0103313 2.15008e-09
-1.22941e-08 0.0103313 2.26082e-09
-1.26029e-08 0.0103313 2.16733e-09
-1.26515e-08 0.0103313 2.14957e-09
-1.2045e-08 0.0103313 2.1959e-09
-1.20675e-08 0.0103313 2.2248e-09
-1.23883e-08 0.0103313 2.20552e-09
-1.2542e-08 0.0103313 2.26264e-09
-1.27392e-08 0.0103313 2.23904e-09
-1.35505e-08 0.0113516 2.92219e-09
-1.38402e-08 0.0113516 2.75255e-09
-1.40794e-08 0.0113516 2.78717e-09
-1.42765e-08 0.0113516 2.73148e-09
-1.45008e-08 0.0113516 2.84068e-09
-1.35313e-08 0.0113516 2.8896e-09
-1.3826e-08 0.0113516 2.83453e-09
-1.39997e-08 0.0113516 2.90736e-09
-1.42246e-08 0.0113516 2.81884e-09
-1.43775e-08 0.0113516 2.71439e-09
-1.36937e-08 0.0113516 2.90669e-09
-1.37612e-08 0.0113516 2.97336e-09
-1.39361e-08 0.0113516 2.94419e-09
-1.42053e-08 0.0113516 2.82082e-09
-1.43174e-08 0.0113516 2.86968e-09
-1.37254e-08 0.0113516 3.02441e-09
-1.37897e-08 0.0113516 2.92091e-09
-1.38755e-08 0.0113516 2.94045e-09
-1.41729e-08 0.0113516 2.93794e-09
-1.43973e-08 0.0113516 2.92208e-09
-1.37687e-08 0.0113516 3.08646e-09
-1.38342e-08 0.0113516 2.8892e-09
-1.38938e-08 0.0113516 2.90256e-09
-1.42561e-08 0.0113516 3.07018e-09
-1.41102e-08 0.0113516 2.93691e-09
-1.52439e-08 0.0124068 3.14748e-09
-1.54502e-08 0.0124068 3.04633e-09
-1.55349e-08 0.0124068 2.97231e-09
-1.5592e-08 0.0124068 2.95509e-09
-1.5837e-08 0.0124068 3.17778e-09
-1.53085e-08 0.0124068 3.11151e-09
-1.54702e-08 0.0124068 3.20941e-09
-1.5524e-08 0.0124068 3.05482e-09
-1.56601e-08 0.0124068 3.10951e-09
-1.57079e-08 0.0124068 3.04684e-09
-1.53135e-08 0.0124068 3.27683e-09
-1.53753e-08 0.0124068 3.19714e-09
-1.5537e-08 0.0124068 3.26161e-09
-1.56547e-08 0.0124068 3.09304e-09
-1.58291e-08 0.0124068 3.06682e-09
-1.52312e-08 0.0124068 3.27943e-09
-1.55017e-08 0.0124068 3.34982e-09
-1.55411e-08 0.0124068 3.29937e-09
-1.56181e-08 0.0124068 3.20331e-09
-1.55736e-08 0.0124068 3.2684e-09
-1.47939e-08 0.0124068 3.27413e-09
-1.55221e-08 0.0124068 3.23902e-09
-1.55732e-08 0.0124068 3.42607e-09
-1.56874e-08 0.0124068 3.1851e-09
-1.58071e-08 0.0124068 3.4697e-09
-1.7131e-08 0.0134941 3.22502e-09
-1.70008e-08 0.0134941 3.31628e-09
-1.69068e-08 0.0134941 3.26246e-09
-1.69679e-08 0.0134941 3.06683e-09
-1.65491e-08 0.0134941 3.09541e-09
-1.70623e-08 0.0134941 3.32794e-09
-1.68996e-08 0.0134941 3.30646e-09
-1.68803e-08 0.0134941 3.26828e-09
-1.69448e-08 0.0134941 3.10199e-09
-1.6858e-08 0.0134941 3.18127e-09
-1.68809e-08 0.0134941 3.43294e-09
-1.68669e-08 0.0134941 3.29886e-09
-1.68121e-08 0.0134941 3.33861e-09
-1.70368e-08 0.0134941 3.41533e-09
-1.70279e-08 0.0134941 3.3571e-09
-1.67569e-08 0.0134941 3.24002e-09
-1.68917e-08 0.0134941 3.40086e-09
-1.69225e-08 0.0134941 3.44463e-09
-1.69747e-08 0.0134941 3.45628e-09
-1.68657e-08 0.0134941 3.45654e-09
-1.6974e-08 0.0134941 3.42257e-09
-1.67653e-08 0.0134941 3.29443e-09
-1.70101e-08 0.0134941 3.29999e-09
-1.68709e-08 0.0134941 3.55828e-09
-1.69355e-08 0.0134941 3.35317e-09
-1.84298e-08 0.0146134 3.61072e-09
-1.80811e-08 0.0146134 3.38537e-09
-1.79482e-08 0.0146134 3.43379e-09
-1.80497e-08 0.0146134 3.20084e-09
-1.80833e-08 0.0146134 3.16932e-09
-1.78222e-08 0.0146134 3.31816e-09
-1.81732e-08 0.0146134 3.30337e-09
-1.80392e-08 0.0146134 3.28208e-09
-1.80779e-08 0.0146134 3.34059e-09
-1.78797e-08 0.0146134 3.28565e-09
-1.79908e-08 0.0146134 3.13077e-09
-1.80623e-08 0.0146134 3.14671e-09
-1.80035e-08 0.0146134 3.17816e-09
-1.79739e-08 0.0146134 3.35136e-09
-1.81e-08 0.0146134 3.29999e-09
-1.80799e-08 0.0146134 3.04846e-09
-1.793e-08 0.0146134 3.1424e-09
-1.79859e-08 0.0146134 3.14331e-09
-1.79813e-08 0.0146134 3.31068e-09
-1.82096e-08 0.0146134 3.31627e-09
-1.73988e-08 0.0146134 3.08659e-09
-1.8165e-08 0.0146134 3.19281e-09
-1.79947e-08 0.0146134 3.32134e-09
-1.79136e-08 0.0146134 3.46264e-09
-1.82599e-08 0.0146134 3.36741e-09
-1.89959e-08 0.0157676 3.01634e-09
-1.91369e-08 0.0157676 3.21144e-09
-1.8907e-08 0.0157676 3.05528e-09
-1.88513e-08 0.0157676 3.01531e-09
-1.91391e-08 0.0157676 3.1198e-09
-1.90328e-08 0.0157676 2.86228e-09
-1.90785e-08 0.0157676 2.83916e-09
-1.89061e-08 0.0157676 3.10842e-09
-1.89861e-08 0.0157676 3.0709e-09
-1.87844e-08 0.0157676 2.81008e-09
-1.91815e-08 0.0157676 2.96564e-09
-1.90239e-08 0.0157676 2.85491e-09
-1.89183e-08 0.0157676 2.8308e-09
-1.88398e-08 0.0157676 2.9108e-09
-1.87797e-08 0.0157676 2.96783e-09
-1.88309e-08 0.0157676 2.65655e-09
-1.91451e-08 0.0157676 2.73713e-09
-1.89363e-08 0.0157676 2.74918e-09
-1.88011e-08 0.0157676 2.87425e-09
-1.88543e-08 0.0157676 3.04005e-09
-1.86336e-08 0.0157676 2.76279e-09
-1.89311e-08 0.0157676 2.6319e-09
-1.8952e-08 0.0157676 2.93189e-09
-1.89341e-08 0.0157676 2.81678e-09
-1.87083e-08 0.0157676 3.04372e-09
-1.97054e-08 0.0169621 2.61061e-09
-1.95579e-08 0.0169621 2.43614e-09
-1.97345e-08 0.0169621 2.44793e-09
-1.96941e-08 0.0169621 2.48936e-09
-1.91641e-08 0.0169621 2.50628e-09
-1.98846e-08 0.0169621 2.66139e-09
-1.9676e-08 0.0169621 2.40764e-09
-1.95822e-08 0.0169621 2.53424e-09
-1.95954e-08 0.0169621 2.52529e-09
-1.95067e-08 0.0169621 2.28186e-09
-1.97995e-08 0.0169621 2.44695e-09
-1.9667e-08 0.0169621 2.52426e-09
-1.95924e-08 0.0169621 2.38921e-09
-1.95135e-08 0.0169621 2.38357e-09
-1.92793e-08 0.0169621 2.38504e-09
-1.96901e-08 0.0169621 2.34394e-09
-1.97358e-08 0.0169621 2.30616e-09
-1.9638e-08 0.0169621 2.56833e-09
-1.94243e-08 0.0169621 2.45418e-09
-1.92175e-08 0.0169621 2.46834e-09
-2.01202e-08 0.0169621 2.44716e-09
-1.95963e-08 0.0169621 2.09862e-09
-1.94396e-08 0.0169621 2.182e-09
-1.95488e-08 0.0169621 2.52242e-09
-1.91825e-08 0.0169621 2.31398e-09
-2.02756e-08 0.0182031 2.10419e-09
-2.00152e-08 0.0182031 2.08427e-09
-1.98303e-08 0.0182031 2.23163e-09
-2.02819e-08 0.0182031 2.19989e-09
-1.99274e-08 0.0182031 2.17227e-09
-1.99705e-08 0.0182031 2.04082e-09
-2.00524e-08 0.0182031 2.05635e-09
-1.99424e-08 0.0182031 1.91743e-09
-2.00241e-08 0.0182031 2.01679e-09
-1.97094e-08 0.0182031 2.00743e-09
-2.00687e-08 0.0182031 1.99591e-09
-2.01523e-08 0.0182031 2.04362e-09
-1.99731e-08 0.0182031 1.95845e-09
-1.97769e-08 0.0182031 1.96234e-09
-1.99179e-08 0.0182031 1.75128e-09
-2.02158e-08 0.0182031 1.94706e-09
-2.01024e-08 0.0182031 1.71135e-09
-1.98799e-08 0.0182031 2.11128e-09
-1.98504e-08 0.0182031 1.93895e-09
-1.96887e-08 0.0182031 1.87726e-09
-1.98307e-08 0.0182031 1.66583e-09
-2.0184e-08 0.0182031 1.87578e-09
-2.00635e-08 0.0182031 1.81869e-09
-1.98904e-08 0.0182031 1.98485e-09
-1.96308e-08 0.0182031 1.77685e-09
-2.02178e-08 0.0194953 1.6328e-09
-2.00332e-08 0.0194953 1.56297e-09
-1.97946e-08 0.0194953 1.51575e-09
-2.0121e-08 0.0194953 1.35313e-09
-1.99519e-08 0.0194953 1.65898e-09
-2.01694e-08 0.0194953 1.42094e-09
-2.0138e-08 0.0194953 1.48414e-09
-2.00301e-08 0.0194953 1.4542e-09
-2.00414e-08 0.0194953 1.48708e-09
-1.9848e-08 0.0194953 1.62928e-09
-2.01898e-08 0.0194953 1.58467e-09
-2.00089e-08 0.0194953 1.48792e-09
-2.00689e-08 0.0194953 1.45455e-09
-2.00008e-08 0.0194953 1.58487e-09
-1.95089e-08 0.0194953 1.45303e-09
-2.00911e-08 0.0194953 1.61275e-09
-2.01341e-08 0.0194953 1.73989e-09
-1.99945e-08 0.0194953 1.50971e-09
-2.00317e-08 0.0194953 1.54986e-09
-1.97603e-08 0.0194953 1.64092e-09
-2.01411e-08 0.0194953 1.72642e-09
-2.0101e-08 0.0194953 1.44559e-09
-1.99333e-08 0.0194953 1.69011e-09
-1.98916e-08 0.0194953 1.58416e-09
-1.95235e-08 0.0194953 1.91112e-09
-1.99532e-08 0.0208386 1.10377e-09
-1.98345e-08 0.0208386 8.69358e-10
-2.00072e-08 0.0208386 7.45061e-10
-1.97473e-08 0.0208386 1.05051e-09
-1.97338e-08 0.0208386 1.42134e-09
-1.98247e-08 0.0208386 1.39501e-09
-1.99548e-08 0.0208386 1.05878e-09
-1.99098e-08 0.0208386 1.01457e-09
-1.97782e-08 0.0208386 1.22471e-09
-1.95869e-08 0.0208386 1.31599e-09
-2.00183e-08 0.0208386 1.19131e-09
-1.98164e-08 0.0208386 1.34696e-09
-1.98035e-08 0.0208386 1.41673e-09
-1.98444e-08 0.0208386 1.22334e-09
-1.92866e-08 0.0208386 1.53789e-09
-1.9675e-08 0.0208386 1.28853e-09
-1.98318e-08 0.0208386 1.42265e-09
-1.98157e-08 0.0208386 1.36074e-09
-1.97934e-08 0.0208386 1.46485e-09
-1.95848e-08 0.0208386 1.53673e-09
-1.90914e-08 0.0208386 1.44849e-09
-1.97908e-08 0.0208386 1.57479e-09
-1.98477e-08 0.0208386 1.32437e-09
-1.97052e-08 0.0208386 1.77195e-09
-1.99059e-08 0.0208386 1.68177e-09
-1.96187e-08 0.0222283 1.32746e-09