<?xml version="1.0"?>
<VTKFile type="UnstructuredGrid" version="0.1" byte_order="LittleEndian">
<UnstructuredGrid>
<Piece NumberOfPoints="1025" NumberOfCells="640">
<Points>
<DataArray type="Float32" NumberOfComponents="3" format="ascii">
0 0 0
0.025 0 0
0.05 0 0
0.075 0 0
0.1 0 0
0 0.025 0
0.025 0.025 0
0.05 0.025 0
0.075 0.025 0
0.1 0.025 0
0 0.05 0
0.025 0.05 0
0.05 0.05 0
0.075 0.05 0
0.1 0.05 0
0 0.075 0
0.025 0.075 0
0.05 0.075 0
0.075 0.075 0
0.1 0.075 0
0 0.1 0
0.025 0.1 0
0.05 0.1 0
0.075 0.1 0
0.1 0.1 0
0 0 0.025
0.025 0 0.025
0.05 0 0.025
0.075 0 0.025
0.1 0 0.025
0 0.025 0.025
0.025 0.025 0.025
0.05 0.025 0.025
0.075 0.025 0.025
0.1 0.025 0.025
0 0.05 0.025
0.025 0.05 0.025
0.05 0.05 0.025
0.075 0.05 0.025
0.1 0.05 0.025
0 0.075 0.025
0.025 0.075 0.025
0.05 0.075 0.025
0.075 0.075 0.025
0.1 0.075 0.025
0 0.1 0.025
0.025 0.1 0.025
0.05 0.1 0.025
0.075 0.1 0.025
0.1 0.1 0.025
0 0 0.05
0.025 0 0.05
0.05 0 0.05
0.075 0 0.05
0.1 0 0.05
0 0.025 0.05
0.025 0.025 0.05
0.05 0.025 0.05
0.075 0.025 0.05
0.1 0.025 0.05
0 0.05 0.05
0.025 0.05 0.05
0.05 0.05 0.05
0.075 0.05 0.05
0.1 0.05 0.05
0 0.075 0.05
0.025 0.075 0.05
0.05 0.075 0.05
0.075 0.075 0.05
0.1 0.075 0.05
0 0.1 0.05
0.025 0.1 0.05
0.05 0.1 0.05
0.075 0.1 0.05
0.1 0.1 0.05
0 0 0.075
0.025 0 0.075
0.05 0 0.075
0.075 0 0.075
0.1 0 0.075
0 0.025 0.075
0.025 0.025 0.075
0.05 0.025 0.075
0.075 0.025 0.075
0.1 0.025 0.075
0 0.05 0.075
0.025 0.05 0.075
0.05 0.05 0.075
0.075 0.05 0.075
0.1 0.05 0.075
0 0.075 0.075
0.025 0.075 0.075
0.05 0.075 0.075
0.075 0.075 0.075
0.1 0.075 0.075
0 0.1 0.075
0.025 0.1 0.075
0.05 0.1 0.075
0.075 0.1 0.075
0.1 0.1 0.075
0 0 0.1
0.025 0 0.1
0.05 0 0.1
0.075 0 0.1
0.1 0 0.1
0 0.025 0.1
0.025 0.025 0.1
0.05 0.025 0.1
0.075 0.025 0.1
0.1 0.025 0.1
0 0.05 0.1
0.025 0.05 0.1
0.05 0.05 0.1
0.075 0.05 0.1
0.1 0.05 0.1
0 0.075 0.1
0.025 0.075 0.1
0.05 0.075 0.1
0.075 0.075 0.1
0.1 0.075 0.1
0 0.1 0.1
0.025 0.1 0.1
0.05 0.1 0.1
0.075 0.1 0.1
0.1 0.1 0.1
0 0 0.125
0.025 0 0.125
0.05 0 0.125
0.075 0 0.125
0.1 0 0.125
0 0.025 0.125
0.025 0.025 0.125
0.05 0.025 0.125
0.075 0.025 0.125
0.1 0.025 0.125
0 0.05 0.125
0.025 0.05 0.125
0.05 0.05 0.125
0.075 0.05 0.125
0.1 0.05 0.125
0 0.075 0.125
0.025 0.075 0.125
0.05 0.075 0.125
0.075 0.075 0.125
0.1 0.075 0.125
0 0.1 0.125
0.025 0.1 0.125
0.05 0.1 0.125
0.075 0.1 0.125
0.1 0.1 0.125
0 0 0.15
0.025 0 0.15
0.05 0 0.15
0.075 0 0.15
0.1 0 0.15
0 0.025 0.15
0.025 0.025 0.15
0.05 0.025 0.15
0.075 0.025 0.15
0.1 0.025 0.15
0 0.05 0.15
0.025 0.05 0.15
0.05 0.05 0.15
0.075 0.05 0.15
0.1 0.05 0.15
0 0.075 0.15
0.025 0.075 0.15
0.05 0.075 0.15
0.075 0.075 0.15
0.1 0.075 0.15
0 0.1 0.15
0.025 0.1 0.15
0.05 0.1 0.15
0.075 0.1 0.15
0.1 0.1 0.15
0 0 0.175
0.025 0 0.175
0.05 0 0.175
0.075 0 0.175
0.1 0 0.175
0 0.025 0.175
0.025 0.025 0.175
0.05 0.025 0.175
0.075 0.025 0.175
0.1 0.025 0.175
0 0.05 0.175
0.025 0.05 0.175
0.05 0.05 0.175
0.075 0.05 0.175
0.1 0.05 0.175
0 0.075 0.175
0.025 0.075 0.175
0.05 0.075 0.175
0.075 0.075 0.175
0.1 0.075 0.175
0 0.1 0.175
0.025 0.1 0.175
0.05 0.1 0.175
0.075 0.1 0.175
0.1 0.1 0.175
0 0 0.2
0.025 0 0.2
0.05 0 0.2
0.075 0 0.2
0.1 0 0.2
0 0.025 0.2
0.025 0.025 0.2
0.05 0.025 0.2
0.075 0.025 0.2
0.1 0.025 0.2
0 0.05 0.2
0.025 0.05 0.2
0.05 0.05 0.2
0.075 0.05 0.2
0.1 0.05 0.2
0 0.075 0.2
0.025 0.075 0.2
0.05 0.075 0.2
0.075 0.075 0.2
0.1 0.075 0.2
0 0.1 0.2
0.025 0.1 0.2
0.05 0.1 0.2
0.075 0.1 0.2
0.1 0.1 0.2
0 0 0.225
0.025 0 0.225
0.05 0 0.225
0.075 0 0.225
0.1 0 0.225
0 0.025 0.225
0.025 0.025 0.225
0.05 0.025 0.225
0.075 0.025 0.225
0.1 0.025 0.225
0 0.05 0.225
0.025 0.05 0.225
0.05 0.05 0.225
0.075 0.05 0.225
0.1 0.05 0.225
0 0.075 0.225
0.025 0.075 0.225
0.05 0.075 0.225
0.075 0.075 0.225
0.1 0.075 0.225
0 0.1 0.225
0.025 0.1 0.225
0.05 0.1 0.225
0.075 0.1 0.225
0.1 0.1 0.225
0 0 0.25
0.025 0 0.25
0.05 0 0.25
0.075 0 0.25
0.1 0 0.25
0 0.025 0.25
0.025 0.025 0.25
0.05 0.025 0.25
0.075 0.025 0.25
0.1 0.025 0.25
0 0.05 0.25
0.025 0.05 0.25
0.05 0.05 0.25
0.075 0.05 0.25
0.1 0.05 0.25
0 0.075 0.25
0.025 0.075 0.25
0.05 0.075 0.25
0.075 0.075 0.25
0.1 0.075 0.25
0 0.1 0.25
0.025 0.1 0.25
0.05 0.1 0.25
0.075 0.1 0.25
0.1 0.1 0.25
0 0 0.275
0.025 0 0.275
0.05 0 0.275
0.075 0 0.275
0.1 0 0.275
0 0.025 0.275
0.025 0.025 0.275
0.05 0.025 0.275
0.075 0.025 0.275
0.1 0.025 0.275
0 0.05 0.275
0.025 0.05 0.275
0.05 0.05 0.275
0.075 0.05 0.275
0.1 0.05 0.275
0 0.075 0.275
0.025 0.075 0.275
0.05 0.075 0.275
0.075 0.075 0.275
0.1 0.075 0.275
0 0.1 0.275
0.025 0.1 0.275
0.05 0.1 0.275
0.075 0.1 0.275
0.1 0.1 0.275
0 0 0.3
0.025 0 0.3
0.05 0 0.3
0.075 0 0.3
0.1 0 0.3
0 0.025 0.3
0.025 0.025 0.3
0.05 0.025 0.3
0.075 0.025 0.3
0.1 0.025 0.3
0 0.05 0.3
0.025 0.05 0.3
0.05 0.05 0.3
0.075 0.05 0.3
0.1 0.05 0.3
0 0.075 0.3
0.025 0.075 0.3
0.05 0.075 0.3
0.075 0.075 0.3
0.1 0.075 0.3
0 0.1 0.3
0.025 0.1 0.3
0.05 0.1 0.3
0.075 0.1 0.3
0.1 0.1 0.3
0 0 0.325
0.025 0 0.325
0.05 0 0.325
0.075 0 0.325
0.1 0 0.325
0 0.025 0.325
0.025 0.025 0.325
0.05 0.025 0.325
0.075 0.025 0.325
0.1 0.025 0.325
0 0.05 0.325
0.025 0.05 0.325
0.05 0.05 0.325
0.075 0.05 0.325
0.1 0.05 0.325
0 0.075 0.325
0.025 0.075 0.325
0.05 0.075 0.325
0.075 0.075 0.325
0.1 0.075 0.325
0 0.1 0.325
0.025 0.1 0.325
0.05 0.1 0.325
0.075 0.1 0.325
0.1 0.1 0.325
0 0 0.35
0.025 0 0.35
0.05 0 0.35
0.075 0 0.35
0.1 0 0.35
0 0.025 0.35
0.025 0.025 0.35
0.05 0.025 0.35
0.075 0.025 0.35
0.1 0.025 0.35
0 0.05 0.35
0.025 0.05 0.35
0.05 0.05 0.35
0.075 0.05 0.35
0.1 0.05 0.35
0 0.075 0.35
0.025 0.075 0.35
0.05 0.075 0.35
0.075 0.075 0.35
0.1 0.075 0.35
0 0.1 0.35
0.025 0.1 0.35
0.05 0.1 0.35
0.075 0.1 0.35
0.1 0.1 0.35
0 0 0.375
0.025 0 0.375
0.05 0 0.375
0.075 0 0.375
0.1 0 0.375
0 0.025 0.375
0.025 0.025 0.375
0.05 0.025 0.375
0.075 0.025 0.375
0.1 0.025 0.375
0 0.05 0.375
0.025 0.05 0.375
0.05 0.05 0.375
0.075 0.05 0.375
0.1 0.05 0.375
0 0.075 0.375
0.025 0.075 0.375
0.05 0.075 0.375
0.075 0.075 0.375
0.1 0.075 0.375
0 0.1 0.375
0.025 0.1 0.375
0.05 0.1 0.375
0.075 0.1 0.375
0.1 0.1 0.375
0 0 0.4
0.025 0 0.4
0.05 0 0.4
0.075 0 0.4
0.1 0 0.4
0 0.025 0.4
0.025 0.025 0.4
0.05 0.025 0.4
0.075 0.025 0.4
0.1 0.025 0.4
0 0.05 0.4
0.025 0.05 0.4
0.05 0.05 0.4
0.075 0.05 0.4
0.1 0.05 0.4
0 0.075 0.4
0.025 0.075 0.4
0.05 0.075 0.4
0.075 0.075 0.4
0.1 0.075 0.4
0 0.1 0.4
0.025 0.1 0.4
0.05 0.1 0.4
0.075 0.1 0.4
0.1 0.1 0.4
0 0 0.425
0.025 0 0.425
0.05 0 0.425
0.075 0 0.425
0.1 0 0.425
0 0.025 0.425
0.025 0.025 0.425
0.05 0.025 0.425
0.075 0.025 0.425
0.1 0.025 0.425
0 0.05 0.425
0.025 0.05 0.425
0.05 0.05 0.425
0.075 0.05 0.425
0.1 0.05 0.425
0 0.075 0.425
0.025 0.075 0.425
0.05 0.075 0.425
0.075 0.075 0.425
0.1 0.075 0.425
0 0.1 0.425
0.025 0.1 0.425
0.05 0.1 0.425
0.075 0.1 0.425
0.1 0.1 0.425
0 0 0.45
0.025 0 0.45
0.05 0 0.45
0.075 0 0.45
0.1 0 0.45
0 0.025 0.45
0.025 0.025 0.45
0.05 0.025 0.45
0.075 0.025 0.45
0.1 0.025 0.45
0 0.05 0.45
0.025 0.05 0.45
0.05 0.05 0.45
0.075 0.05 0.45
0.1 0.05 0.45
0 0.075 0.45
0.025 0.075 0.45
0.05 0.075 0.45
0.075 0.075 0.45
0.1 0.075 0.45
0 0.1 0.45
0.025 0.1 0.45
0.05 0.1 0.45
0.075 0.1 0.45
0.1 0.1 0.45
0 0 0.475
0.025 0 0.475
0.05 0 0.475
0.075 0 0.475
0.1 0 0.475
0 0.025 0.475
0.025 0.025 0.475
0.05 0.025 0.475
0.075 0.025 0.475
0.1 0.025 0.475
0 0.05 0.475
0.025 0.05 0.475
0.05 0.05 0.475
0.075 0.05 0.475
0.1 0.05 0.475
0 0.075 0.475
0.025 0.075 0.475
0.05 0.075 0.475
0.075 0.075 0.475
0.1 0.075 0.475
0 0.1 0.475
0.025 0.1 0.475
0.05 0.1 0.475
0.075 0.1 0.475
0.1 0.1 0.475
0 0 0.5
0.025 0 0.5
0.05 0 0.5
0.075 0 0.5
0.1 0 0.5
0 0.025 0.5
0.025 0.025 0.5
0.05 0.025 0.5
0.075 0.025 0.5
0.1 0.025 0.5
0 0.05 0.5
0.025 0.05 0.5
0.05 0.05 0.5
0.075 0.05 0.5
0.1 0.05 0.5
0 0.075 0.5
0.025 0.075 0.5
0.05 0.075 0.5
0.075 0.075 0.5
0.1 0.075 0.5
0 0.1 0.5
0.025 0.1 0.5
0.05 0.1 0.5
0.075 0.1 0.5
0.1 0.1 0.5
0 0 0.525
0.025 0 0.525
0.05 0 0.525
0.075 0 0.525
0.1 0 0.525
0 0.025 0.525
0.025 0.025 0.525
0.05 0.025 0.525
0.075 0.025 0.525
0.1 0.025 0.525
0 0.05 0.525
0.025 0.05 0.525
0.05 0.05 0.525
0.075 0.05 0.525
0.1 0.05 0.525
0 0.075 0.525
0.025 0.075 0.525
0.05 0.075 0.525
0.075 0.075 0.525
0.1 0.075 0.525
0 0.1 0.525
0.025 0.1 0.525
0.05 0.1 0.525
0.075 0.1 0.525
0.1 0.1 0.525
0 0 0.55
0.025 0 0.55
0.05 0 0.55
0.075 0 0.55
0.1 0 0.55
0 0.025 0.55
0.025 0.025 0.55
0.05 0.025 0.55
0.075 0.025 0.55
0.1 0.025 0.55
0 0.05 0.55
0.025 0.05 0.55
0.05 0.05 0.55
0.075 0.05 0.55
0.1 0.05 0.55
0 0.075 0.55
0.025 0.075 0.55
0.05 0.075 0.55
0.075 0.075 0.55
0.1 0.075 0.55
0 0.1 0.55
0.025 0.1 0.55
0.05 0.1 0.55
0.075 0.1 0.55
0.1 0.1 0.55
0 0 0.575
0.025 0 0.575
0.05 0 0.575
0.075 0 0.575
0.1 0 0.575
0 0.025 0.575
0.025 0.025 0.575
0.05 0.025 0.575
0.075 0.025 0.575
0.1 0.025 0.575
0 0.05 0.575
0.025 0.05 0.575
0.05 0.05 0.575
0.075 0.05 0.575
0.1 0.05 0.575
0 0.075 0.575
0.025 0.075 0.575
0.05 0.075 0.575
0.075 0.075 0.575
0.1 0.075 0.575
0 0.1 0.575
0.025 0.1 0.575
0.05 0.1 0.575
0.075 0.1 0.575
0.1 0.1 0.575
0 0 0.6
0.025 0 0.6
0.05 0 0.6
0.075 0 0.6
0.1 0 0.6
0 0.025 0.6
0.025 0.025 0.6
0.05 0.025 0.6
0.075 0.025 0.6
0.1 0.025 0.6
0 0.05 0.6
0.025 0.05 0.6
0.05 0.05 0.6
0.075 0.05 0.6
0.1 0.05 0.6
0 0.075 0.6
0.025 0.075 0.6
0.05 0.075 0.6
0.075 0.075 0.6
0.1 0.075 0.6
0 0.1 0.6
0.025 0.1 0.6
0.05 0.1 0.6
0.075 0.1 0.6
0.1 0.1 0.6
0 0 0.625
0.025 0 0.625
0.05 0 0.625
0.075 0 0.625
0.1 0 0.625
0 0.025 0.625
0.025 0.025 0.625
0.05 0.025 0.625
0.075 0.025 0.625
0.1 0.025 0.625
0 0.05 0.625
0.025 0.05 0.625
0.05 0.05 0.625
0.075 0.05 0.625
0.1 0.05 0.625
0 0.075 0.625
0.025 0.075 0.625
0.05 0.075 0.625
0.075 0.075 0.625
0.1 0.075 0.625
0 0.1 0.625
0.025 0.1 0.625
0.05 0.1 0.625
0.075 0.1 0.625
0.1 0.1 0.625
0 0 0.65
0.025 0 0.65
0.05 0 0.65
0.075 0 0.65
0.1 0 0.65
0 0.025 0.65
0.025 0.025 0.65
0.05 0.025 0.65
0.075 0.025 0.65
0.1 0.025 0.65
0 0.05 0.65
0.025 0.05 0.65
0.05 0.05 0.65
0.075 0.05 0.65
0.1 0.05 0.65
0 0.075 0.65
0.025 0.075 0.65
0.05 0.075 0.65
0.075 0.075 0.65
0.1 0.075 0.65
0 0.1 0.65
0.025 0.1 0.65
0.05 0.1 0.65
0.075 0.1 0.65
0.1 0.1 0.65
0 0 0.675
0.025 0 0.675
0.05 0 0.675
0.075 0 0.675
0.1 0 0.675
[...]
<PointData Vectors="Displacement">
<DataArray type="Float32" Name="Displacement" NumberOfComponents="3" format="ascii">
0 0 0
0 0 0
0 0 0
0 0 0
0 0 0
0 0 0
0 0 0
0 0 0
0 0 0
0 0 0
0 0 0
0 0 0
0 0 0
0 0 0
0 0 0
0 0 0
0 0 0
0 0 0
0 0 0
0 0 0
0 0 0
0 0 0
0 0 0
0 0 0
0 0 0
1.08508e-09 0.00160003 9.15651e-10
9.28682e-10 0.00160003 9.22949e-10
8.21663e-10 0.00160003 9.47904e-10
7.42573e-10 0.00160003 9.42075e-10
5.94628e-10 0.00160003 9.06561e-10
1.09306e-09 0.00160003 9.28058e-10
9.30208e-10 0.00160003 9.28855e-10
8.44721e-10 0.00160003 9.02103e-10
7.43988e-10 0.00160003 9.21699e-10
6.05104e-10 0.00160003 8.99248e-10
1.08411e-09 0.00160003 9.21172e-10
9.20487e-10 0.00160003 9.22517e-10
8.3881e-10 0.00160003 9.08753e-10
7.52581e-10 0.00160003 8.97217e-10
5.80501e-10 0.00160003 8.99607e-10
1.12004e-09 0.00160003 9.43157e-10
9.2963e-10 0.00160003 9.11891e-10
8.41643e-10 0.00160003 9.29363e-10
7.43097e-10 0.00160003 9.17427e-10
5.755e-10 0.00160003 9.1881e-10
1.15782e-09 0.00160003 9.09589e-10
9.31125e-10 0.00160003 9.52218e-10
8.30426e-10 0.00160003 9.49379e-10
7.28542e-10 0.00160003 9.56598e-10
5.95732e-10 0.00160003 9.30922e-10
1.95356e-09 0.00319644 1.90259e-09
1.78778e-09 0.00319644 1.88985e-09
1.70873e-09 0.00319644 1.82879e-09
1.52059e-09 0.00319644 1.82959e-09
1.34564e-09 0.00319644 1.77923e-09
1.8904e-09 0.00319644 1.87724e-09
1.80737e-09 0.00319644 1.86835e-09
1.64732e-09 0.00319644 1.86709e-09
1.54426e-09 0.00319644 1.84809e-09
1.40547e-09 0.00319644 1.82132e-09
1.91314e-09 0.00319644 1.89232e-09
1.79831e-09 0.00319644 1.88154e-09
1.65198e-09 0.00319644 1.81869e-09
1.51661e-09 0.00319644 1.82639e-09
1.44724e-09 0.00319644 1.8635e-09
2.01623e-09 0.00319644 1.83696e-09
1.78036e-09 0.00319644 1.8595e-09
1.66904e-09 0.00319644 1.85994e-09
1.51485e-09 0.00319644 1.86392e-09
1.36067e-09 0.00319644 1.81359e-09
1.98231e-09 0.00319644 1.87052e-09
1.85784e-09 0.00319644 1.80388e-09
1.66421e-09 0.00319644 1.85818e-09
1.5354e-09 0.00319644 1.86739e-09
1.25496e-09 0.00319644 1.90762e-09
2.54928e-09 0.0047859 2.82193e-09
2.60776e-09 0.0047859 2.78894e-09
2.46528e-09 0.0047859 2.79217e-09
2.2887e-09 0.0047859 2.79148e-09
2.27766e-09 0.0047859 2.77812e-09
2.77057e-09 0.0047859 2.77435e-09
2.5445e-09 0.0047859 2.84524e-09
2.45616e-09 0.0047859 2.76852e-09
2.30369e-09 0.0047859 2.73189e-09
2.29374e-09 0.0047859 2.78024e-09
2.79968e-09 0.0047859 2.79156e-09
2.56021e-09 0.0047859 2.76345e-09
2.39054e-09 0.0047859 2.76879e-09
2.32104e-09 0.0047859 2.76616e-09
2.24333e-09 0.0047859 2.67616e-09
2.76403e-09 0.0047859 2.73636e-09
2.55688e-09 0.0047859 2.73742e-09
2.43127e-09 0.0047859 2.73537e-09
2.29904e-09 0.0047859 2.73225e-09
2.25089e-09 0.0047859 2.73844e-09
2.79378e-09 0.0047859 2.68615e-09
2.55546e-09 0.0047859 2.71262e-09
2.43598e-09 0.0047859 2.64626e-09
2.28667e-09 0.0047859 2.80534e-09
2.09974e-09 0.0047859 2.73274e-09
3.40382e-09 0.00636556 3.54735e-09
3.34166e-09 0.00636556 3.72294e-09
3.16023e-09 0.00636556 3.58721e-09
3.03194e-09 0.00636556 3.61439e-09
3.06381e-09 0.00636555 3.55002e-09
3.39296e-09 0.00636556 3.61596e-09
3.25221e-09 0.00636556 3.59401e-09
3.15247e-09 0.00636556 3.55755e-09
3.03542e-09 0.00636556 3.57701e-09
2.94818e-09 0.00636556 3.6171e-09
3.36905e-09 0.00636556 3.60724e-09
3.26684e-09 0.00636556 3.54612e-09
3.15096e-09 0.00636556 3.53047e-09
3.01598e-09 0.00636555 3.59654e-09
3.07302e-09 0.00636555 3.49741e-09
3.35253e-09 0.00636556 3.45744e-09
3.24712e-09 0.00636556 3.55972e-09
3.13245e-09 0.00636556 3.4915e-09
3.05036e-09 0.00636555 3.53024e-09
3.00017e-09 0.00636555 3.52326e-09
3.34432e-09 0.00636556 3.53186e-09
3.27758e-09 0.00636556 3.52305e-09
3.13926e-09 0.00636555 3.51757e-09
3.10786e-09 0.00636555 3.46008e-09
2.7897e-09 0.00636555 3.5147e-09
3.87987e-09 0.00793313 4.32949e-09
3.95257e-09 0.00793313 4.30652e-09
3.79939e-09 0.00793313 4.39041e-09
3.63969e-09 0.00793313 4.23825e-09
3.54192e-09 0.00793313 4.33047e-09
4.05923e-09 0.00793313 4.31086e-09
3.90483e-09 0.00793313 4.34993e-09
3.80546e-09 0.00793313 4.25734e-09
3.68006e-09 0.00793313 4.30849e-09
3.69294e-09 0.00793313 4.26274e-09
4.09876e-09 0.00793313 4.26704e-09
3.87923e-09 0.00793313 4.28469e-09
3.84732e-09 0.00793313 4.23957e-09
3.69139e-09 0.00793313 4.31023e-09
3.65815e-09 0.00793313 4.35099e-09
3.95253e-09 0.00793313 4.24985e-09
3.94468e-09 0.00793313 4.24814e-09
3.84898e-09 0.00793313 4.31078e-09
3.65631e-09 0.00793313 4.33695e-09
3.7072e-09 0.00793313 4.19669e-09
4.01947e-09 0.00793313 4.25244e-09
3.92459e-09 0.00793313 4.22048e-09
3.79282e-09 0.00793313 4.27674e-09
3.65849e-09 0.00793313 4.24892e-09
3.63279e-09 0.00793313 4.3438e-09
4.52354e-09 0.00948683 4.90423e-09
4.36065e-09 0.00948683 4.96202e-09
4.3704e-09 0.00948683 4.88194e-09
4.20518e-09 0.00948683 4.98982e-09
4.37929e-09 0.00948683 4.91287e-09
4.55814e-09 0.00948683 4.98276e-09
4.42064e-09 0.00948683 4.82686e-09
4.432e-09 0.00948683 4.92766e-09
4.35816e-09 0.00948683 4.84444e-09
4.18342e-09 0.00948683 4.94823e-09
4.49795e-09 0.00948683 4.90072e-09
4.4953e-09 0.00948683 4.87532e-09
4.42415e-09 0.00948683 4.82788e-09
4.31754e-09 0.00948683 4.8944e-09
4.33518e-09 0.00948683 4.82357e-09
4.63235e-09 0.00948683 4.89076e-09
4.50658e-09 0.00948683 4.81154e-09
4.43689e-09 0.00948683 4.90488e-09
4.32065e-09 0.00948683 4.789e-09
4.16972e-09 0.00948683 4.9433e-09
4.4797e-09 0.00948683 4.83788e-09
4.51114e-09 0.00948682 4.83745e-09
4.55104e-09 0.00948683 4.78427e-09
4.21684e-09 0.00948682 4.90765e-09
4.30942e-09 0.00948682 4.80197e-09
4.98737e-09 0.0110252 5.2586e-09
4.88667e-09 0.0110252 5.28487e-09
4.91181e-09 0.0110252 5.4128e-09
4.98459e-09 0.0110252 5.16813e-09
4.53588e-09 0.0110252 5.38381e-09
5.01222e-09 0.0110252 5.22268e-09
4.89541e-09 0.0110252 5.28998e-09
4.84043e-09 0.0110252 5.26222e-09
4.93314e-09 0.0110252 5.30641e-09
4.88806e-09 0.0110252 5.23405e-09
5.09286e-09 0.0110252 5.37716e-09
4.96027e-09 0.0110252 5.31241e-09
4.92473e-09 0.0110252 5.37003e-09
4.82412e-09 0.0110252 5.30657e-09
4.88969e-09 0.0110252 5.27397e-09
5.04895e-09 0.0110252 5.34305e-09
5.00353e-09 0.0110252 5.24023e-09
4.93804e-09 0.0110252 5.18142e-09
4.83902e-09 0.0110252 5.30634e-09
4.69152e-09 0.0110252 5.20024e-09
5.01984e-09 0.0110252 5.41698e-09
5.07791e-09 0.0110252 5.27519e-09
4.93072e-09 0.0110252 5.21878e-09
4.88701e-09 0.0110252 5.23518e-09
4.84282e-09 0.0110252 5.28655e-09
5.52175e-09 0.0125468 5.35733e-09
5.27367e-09 0.0125468 5.62076e-09
5.39222e-09 0.0125468 5.43841e-09
5.2401e-09 0.0125468 5.50266e-09
5.64701e-09 0.0125468 5.3504e-09
5.38075e-09 0.0125468 5.50718e-09
5.37303e-09 0.0125468 5.5916e-09
5.35719e-09 0.0125468 5.56572e-09
5.16921e-09 0.0125468 5.51575e-09
5.58527e-09 0.0125468 5.47014e-09
5.39624e-09 0.0125468 5.35583e-09
5.46021e-09 0.0125468 5.57519e-09
5.41195e-09 0.0125468 5.50274e-09
5.14258e-09 0.0125468 5.52975e-09
5.32061e-09 0.0125468 5.56624e-09
5.55342e-09 0.0125468 5.6201e-09
5.36831e-09 0.0125468 5.5157e-09
5.32117e-09 0.0125468 5.56038e-09
5.20324e-09 0.0125468 5.55257e-09
5.12272e-09 0.0125468 5.56431e-09
5.74056e-09 0.0125468 5.48661e-09
5.14502e-09 0.0125468 5.50805e-09
5.28757e-09 0.0125468 5.35958e-09
5.20333e-09 0.0125468 5.60194e-09
5.48837e-09 0.0125468 5.47891e-09
6.13392e-09 0.0140501 5.36773e-09
5.63212e-09 0.0140501 5.39852e-09
5.59536e-09 0.0140501 5.44084e-09
5.47782e-09 0.0140501 5.25631e-09
5.68184e-09 0.0140501 5.466e-09
5.89404e-09 0.0140501 5.36696e-09
5.64606e-09 0.0140501 5.36905e-09
5.46755e-09 0.0140501 5.43702e-09
5.55715e-09 0.0140501 5.36381e-09
5.53057e-09 0.0140501 5.42959e-09
5.9215e-09 0.0140501 5.51792e-09
5.69051e-09 0.0140501 5.50885e-09
5.6624e-09 0.0140501 5.51451e-09
5.43395e-09 0.0140501 5.54359e-09
5.5417e-09 0.0140501 5.70763e-09
5.94201e-09 0.0140501 5.39159e-09
5.7137e-09 0.0140501 5.60566e-09
5.64666e-09 0.0140501 5.66208e-09
5.58236e-09 0.0140501 5.61181e-09
5.44676e-09 0.0140501 5.58781e-09
5.47652e-09 0.0140501 5.51513e-09
5.82314e-09 0.0140501 5.38635e-09
5.57222e-09 0.0140501 5.70701e-09
5.49163e-09 0.0140501 5.67392e-09
5.57191e-09 0.0140501 5.73965e-09
5.84648e-09 0.0155335 5.33435e-09
5.74604e-09 0.0155335 5.04657e-09
5.72318e-09 0.0155335 5.00608e-09
5.93236e-09 0.0155335 5.21465e-09
5.83605e-09 0.0155335 5.46284e-09
5.66513e-09 0.0155335 5.27528e-09
5.7816e-09 0.0155335 5.1349e-09
5.83289e-09 0.0155335 5.1771e-09
5.70172e-09 0.0155335 5.2797e-09
6.05058e-09 0.0155335 5.29783e-09
5.76002e-09 0.0155335 5.21518e-09
5.8631e-09 0.0155335 5.31874e-09
5.81115e-09 0.0155335 5.38789e-09
5.71442e-09 0.0155335 5.36982e-09
5.82158e-09 0.0155335 5.26491e-09
5.91915e-09 0.0155335 5.38949e-09
5.97237e-09 0.0155335 5.33115e-09
5.8579e-09 0.0155335 5.47591e-09
5.67568e-09 0.0155335 5.4005e-09
5.77596e-09 0.0155335 5.48048e-09
6.1931e-09 0.0155335 5.40961e-09
6.04207e-09 0.0155335 5.25153e-09
5.94812e-09 0.0155335 5.51368e-09
5.44754e-09 0.0155335 5.45791e-09
5.70955e-09 0.0155335 5.45913e-09
5.82338e-09 0.0169951 4.75018e-09
5.87698e-09 0.0169951 4.96508e-09
5.98685e-09 0.0169951 5.19433e-09
5.95998e-09 0.0169951 5.31383e-09
5.91631e-09 0.0169951 5.24217e-09
5.69666e-09 0.0169951 4.84623e-09
5.87854e-09 0.0169951 4.97206e-09
5.79806e-09 0.0169951 5.02259e-09
5.9853e-09 0.0169951 5.11781e-09
5.93364e-09 0.0169951 5.17056e-09
5.78879e-09 0.0169951 5.03035e-09
5.88017e-09 0.0169951 4.90706e-09
5.88901e-09 0.0169951 5.14133e-09
5.77542e-09 0.0169951 5.03409e-09
6.1717e-09 0.0169951 5.22371e-09
5.94656e-09 0.0169951 5.05562e-09
6.00283e-09 0.0169951 5.20821e-09
5.90176e-09 0.0169951 5.02149e-09
5.78492e-09 0.0169951 5.23611e-09
5.72139e-09 0.0169951 5.18577e-09
5.79912e-09 0.0169951 5.12934e-09
6.09435e-09 0.0169951 5.03852e-09
5.92161e-09 0.0169951 5.04615e-09
6.04641e-09 0.0169951 5.27444e-09
5.19844e-09 0.0169951 5.25597e-09
6.3057e-09 0.0184335 4.49188e-09
5.8457e-09 0.0184335 4.61444e-09
5.81871e-09 0.0184335 4.80189e-09
5.94482e-09 0.0184335 4.50495e-09
5.57905e-09 0.0184335 4.60073e-09
5.88099e-09 0.0184335 4.69358e-09
5.93494e-09 0.0184335 4.69928e-09
5.89552e-09 0.0184335 4.77452e-09
5.89702e-09 0.0184335 4.77969e-09
5.90474e-09 0.0184335 4.73536e-09
6.25824e-09 0.0184335 4.70911e-09
5.87955e-09 0.0184335 4.62601e-09
5.9294e-09 0.0184335 4.60439e-09
5.74626e-09 0.0184335 4.82022e-09
5.98336e-09 0.0184335 4.85797e-09
5.83259e-09 0.0184335 4.77122e-09
5.80592e-09 0.0184335 4.68238e-09
5.99853e-09 0.0184335 4.62212e-09
5.88126e-09 0.0184335 4.66304e-09
5.71561e-09 0.0184335 4.74522e-09
5.99169e-09 0.0184335 4.78105e-09
5.91309e-09 0.0184335 4.77874e-09
6.21109e-09 0.0184335 4.53717e-09
5.70187e-09 0.0184335 4.70939e-09
6.06765e-09 0.0184335 4.50197e-09
5.70927e-09 0.0198473 3.96313e-09
6.14262e-09 0.0198473 4.20537e-09
5.90127e-09 0.0198473 3.86087e-09
5.66373e-09 0.0198473 3.92585e-09
6.52497e-09 0.0198473 3.85167e-09
5.78749e-09 0.0198473 4.06484e-09
5.87711e-09 0.0198473 3.97378e-09
5.90253e-09 0.0198473 4.01483e-09
5.96015e-09 0.0198473 3.95348e-09
6.07994e-09 0.0198473 4.01274e-09
5.98132e-09 0.0198473 4.00377e-09
5.8042e-09 0.0198473 4.13003e-09
6.06285e-09 0.0198473 3.91913e-09
6.05248e-09 0.0198473 4.21963e-09
5.69085e-09 0.0198473 4.02696e-09
5.85242e-09 0.0198473 4.25864e-09
5.98305e-09 0.0198473 4.10694e-09
6.07845e-09 0.0198473 4.35687e-09
5.9698e-09 0.0198473 4.10445e-09
6.27318e-09 0.0198473 4.13878e-09
5.48253e-09 0.0198473 4.11741e-09
5.74637e-09 0.0198473 4.33792e-09
6.06671e-09 0.0198473 4.48671e-09
6.04669e-09 0.0198473 4.26652e-09
6.06158e-09 0.0198473 4.04253e-09
6.05732e-09 0.0212361 3.08159e-09
5.77802e-09 0.0212361 3.16164e-09
5.81476e-09 0.0212361 3.29892e-09
6.00743e-09 0.0212361 3.01237e-09
6.12789e-09 0.0212361 3.67432e-09
5.87006e-09 0.0212361 3.39158e-09
5.85659e-09 0.0212361 3.36103e-09
5.80884e-09 0.0212361 3.07536e-09
6.08867e-09 0.0212361 3.35388e-09
5.83519e-09 0.0212361 3.16456e-09
5.93133e-09 0.0212361 3.42371e-09
5.73847e-09 0.0212361 3.46479e-09
6.02881e-09 0.0212361 3.66841e-09
5.96942e-09 0.0212361 3.13593e-09
5.99793e-09 0.0212361 3.26654e-09
5.49867e-09 0.0212361 3.60925e-09
5.84775e-09 0.0212361 3.73105e-09
6.16698e-09 0.0212361 3.67359e-09
5.89375e-09 0.0212361 3.54735e-09
5.98984e-09 0.0212361 3.4136e-09
5.63405e-09 0.0212361 3.95288e-09
6.04689e-09 0.0212361 3.68043e-09
5.9605e-09 0.0212361 3.54903e-09
5.92081e-09 0.0212361 3.82521e-09
6.73949e-09 0.0212361 3.88585e-09
5.76488e-09 0.0225998 2.52451e-09
5.75123e-09 0.0225998 2.5069e-09
5.85892e-09 0.0225998 2.26095e-09
5.99045e-09 0.0225998 2.61918e-09
6.20482e-09 0.0225998 2.2635e-09
5.69068e-09 0.0225998 2.55281e-09
5.65606e-09 0.0225998 2.57238e-09
5.80563e-09 0.0225998 2.73878e-09
6.01375e-09 0.0225998 2.35413e-09
6.3332e-09 0.0225998 2.51369e-09
5.93184e-09 0.0225998 2.82069e-09
5.77747e-09 0.0225998 2.62435e-09
5.81607e-09 0.0225998 2.65466e-09
5.84439e-09 0.0225998 2.70856e-09
6.24953e-09 0.0225998 2.3341e-09
6.14427e-09 0.0225998 2.81473e-09
5.51817e-09 0.0225998 2.77688e-09
5.88519e-09 0.0225998 2.69591e-09
5.90517e-09 0.0225998 2.60134e-09
6.29551e-09 0.0225998 2.70839e-09
6.18402e-09 0.0225998 2.67827e-09
5.56456e-09 0.0225998 2.70048e-09
5.81471e-09 0.0225998 2.94308e-09
5.90662e-09 0.0225998 2.71696e-09
5.85523e-09 0.0225998 2.88718e-09
5.31587e-09 0.0239389 1.5689e-09
5.76336e-09 0.0239389 1.93192e-09
5.76985e-09 0.0239389 2.25976e-09
5.96779e-09 0.0239389 1.59574e-09
6.50906e-09 0.0239389 1.81015e-09
5.28305e-09 0.0239389 1.86406e-09
5.7838e-09 0.0239389 1.96552e-09
5.69414e-09 0.0239389 1.81555e-09
5.99982e-09 0.0239389 1.88447e-09
6.23951e-09 0.0239389 1.93335e-09
5.93287e-09 0.0239389 1.84229e-09
5.56156e-09 0.0239389 1.96611e-09
5.83774e-09 0.0239389 1.967e-09
5.87287e-09 0.0239389 1.83804e-09
6.09699e-09 0.0239389 2.04513e-09
5.76691e-09 0.0239389 1.75316e-09
5.59052e-09 0.0239389 1.91103e-09
5.74168e-09 0.0239389 2.10176e-09
5.76337e-09 0.0239389 2.01918e-09
6.40097e-09 0.0239389 1.91164e-09
5.74419e-09 0.0239389 2.0611e-09
5.81149e-09 0.0239389 1.76457e-09
5.4205e-09 0.0239389 1.71339e-09
5.95806e-09 0.0239389 2.21036e-09
6.57538e-09 0.0239389 1.71218e-09
5.57984e-09 0.0252538 1.58503e-09
5.63174e-09 0.0252538 1.60013e-09
5.79756e-09 0.0252538 1.98266e-09
5.61203e-09 0.0252538 1.40998e-09
5.98248e-09 0.0252538 1.39922e-09
5.84749e-09 0.0252538 1.36191e-09
5.47147e-09 0.0252538 1.3037e-09
5.7618e-09 0.0252538 1.60695e-09
5.60009e-09 0.0252538 1.50238e-09
6.34168e-09 0.0252538 1.46499e-09
5.52866e-09 0.0252538 1.34487e-09
5.73111e-09 0.0252538 1.1498e-09
5.61209e-09 0.0252538 1.26564e-09
5.92863e-09 0.0252538 1.59064e-09
5.63207e-09 0.0252538 1.40934e-09
6.04946e-09 0.0252538 9.84678e-10
5.64224e-09 0.0252538 1.08919e-09
5.76954e-09 0.0252538 1.37008e-09
5.83633e-09 0.0252538 1.33524e-09
5.95737e-09 0.0252538 1.61358e-09
5.8187e-09 0.0252538 1.06482e-09
5.36447e-09 0.0252538 1.32235e-09
5.9135e-09 0.0252538 1.31283e-09
6.00412e-09 0.0252538 1.68121e-09
6.09464e-09 0.0252538 1.30121e-09
5.08816e-09 0.0265443 1.13897e-09
5.85077e-09 0.0265443 6.74295e-10
5.59181e-09 0.0265443 1.08505e-09
5.56471e-09 0.0265443 9.64703e-10
6.07369e-09 0.0265443 1.071e-09
5.69658e-09 0.0265443 6.66287e-10
5.5437e-09 0.0265443 7.7135e-10
5.77712e-09 0.0265443 1.01995e-09
5.68147e-09 0.0265443 1.03209e-09
5.83311e-09 0.0265443 9.49993e-10
5.67996e-09 0.0265443 8.25432e-10
5.47988e-09 0.0265443 5.63354e-10
5.6672e-09 0.0265443 1.05268e-09
5.78986e-09 0.0265443 9.54346e-10
5.89511e-09 0.0265443 1.05326e-09
5.60773e-09 0.0265443 7.47659e-10
5.50881e-09 0.0265443 7.50203e-10
5.69705e-09 0.0265443 7.70788e-10
5.82367e-09 0.0265443 7.49161e-10
5.73794e-09 0.0265443 8.28892e-10
5.43735e-09 0.0265443 4.19256e-10
5.90145e-09 0.0265443 6.20737e-10
5.50257e-09 0.0265443 8.01126e-10
5.74619e-09 0.0265443 6.22544e-10
5.52097e-09 0.0265443 5.92836e-10
4.56406e-09 0.0278099 2.3656e-10
5.6595e-09 0.0278099 6.54102e-10
5.72963e-09 0.0278099 1.62702e-10
5.65231e-09 0.0278099 1.79208e-11
5.95311e-09 0.0278099 8.81961e-11
5.39495e-09 0.0278099 5.23492e-10
5.46345e-09 0.0278099 4.17233e-10
5.85328e-09 0.0278099 4.81104e-10
5.65442e-09 0.0278099 4.09822e-10
5.87747e-09 0.0278099 1.31934e-10
5.4624e-09 0.0278099 5.06119e-10
5.52317e-09 0.0278099 6.3192e-10
5.69432e-09 0.0278099 4.45923e-10
5.54355e-09 0.0278099 2.05152e-10
6.06177e-09 0.0278099 1.86166e-10
5.47619e-09 0.0278099 2.07686e-10
5.48631e-09 0.0278099 3.20795e-10
5.64193e-09 0.0278099 5.41193e-10
5.73204e-09 0.0278099 1.14165e-10
5.8338e-09 0.0278099 3.42474e-10
5.17609e-09 0.0278099 5.03272e-10
5.19223e-09 0.0278099 1.31977e-10
5.71729e-09 0.0278099 1.12985e-10
5.76474e-09 0.0278099 -6.62137e-12
6.3173e-09 0.0278099 3.73846e-10
5.48427e-09 0.0290499 6.19274e-10
5.6312e-09 0.0290499 6.76435e-10
5.73244e-09 0.0290499 1.38877e-10
5.48151e-09 0.0290499 1.43445e-11
6.44329e-09 0.0290499 -2.62061e-10
5.45386e-09 0.0290499 5.66075e-10
5.66206e-09 0.0290499 5.40335e-10
5.58357e-09 0.0290499 1.47799e-10
5.51578e-09 0.0290499 -1.05862e-11
5.70156e-09 0.0290499 -2.96426e-10
5.36506e-09 0.0290499 2.33799e-10
5.38114e-09 0.0290499 3.12267e-10
5.75541e-09 0.0290499 1.31556e-10
5.56577e-09 0.0290499 -1.36748e-10
5.44203e-09 0.0290499 -2.09912e-10
5.27632e-09 0.0290499 2.6511e-10
5.37836e-09 0.0290499 1.15102e-10
5.35141e-09 0.0290499 1.05885e-10
5.75693e-09 0.0290499 2.34513e-10
5.94845e-09 0.0290499 -7.97771e-11
5.03251e-09 0.0290499 -1.03764e-10
5.13794e-09 0.0290499 3.42586e-11
5.46101e-09 0.0290499 2.66622e-10
5.76039e-09 0.0290499 -1.05631e-10
6.29869e-09 0.0290499 2.03828e-10
5.95012e-09 0.0302643 1.01722e-09
5.3299e-09 0.0302643 2.5353e-10
5.77511e-09 0.0302643 1.56569e-10
5.17368e-09 0.0302643 -2.00575e-10
5.89388e-09 0.0302643 3.75009e-10
5.2937e-09 0.0302643 5.6856e-10
5.55582e-09 0.0302643 6.96563e-10
5.60222e-09 0.0302643 1.4521e-12
5.38226e-09 0.0302643 1.55712e-10
6.04959e-09 0.0302643 8.54476e-11
5.08665e-09 0.0302643 5.66061e-10
5.34982e-09 0.0302643 3.62264e-10
5.49588e-09 0.0302643 3.29953e-10
5.55338e-09 0.0302643 1.49131e-10
5.6823e-09 0.0302643 -1.46656e-10
5.27139e-09 0.0302643 4.66388e-10
5.20442e-09 0.0302643 4.43132e-10
5.54352e-09 0.0302643 4.7334e-10
5.48039e-09 0.0302643 3.39311e-11
5.97758e-09 0.0302643 8.68838e-11
5.01242e-09 0.0302643 4.86067e-10
5.19064e-09 0.0302643 2.36014e-10
5.19325e-09 0.0302643 6.49963e-10
5.80027e-09 0.0302643 2.82088e-10
6.00447e-09 0.0302643 3.15586e-10
5.23534e-09 0.0314541 3.16094e-10
5.59131e-09 0.0314541 9.31363e-10
5.41592e-09 0.0314541 -5.67467e-10
5.49752e-09 0.0314541 6.78333e-11
5.75866e-09 0.0314541 7.89489e-10
5.24156e-09 0.0314541 8.80652e-10
5.40008e-09 0.0314541 2.88883e-10
5.51331e-09 0.0314541 1.88183e-10
5.54192e-09 0.0314541 2.00915e-10
5.70946e-09 0.0314541 5.25879e-10
4.89446e-09 0.0314541 4.45565e-10
5.25856e-09 0.0314541 7.7367e-10
5.32675e-09 0.0314541 4.19698e-10
5.33811e-09 0.0314541 3.44998e-10
6.19992e-09 0.0314541 5.27888e-10
5.12653e-09 0.0314541 5.07747e-10
5.20767e-09 0.0314541 6.68174e-10
5.28179e-09 0.0314541 7.35498e-10
5.35883e-09 0.0314541 4.63212e-10
5.45319e-09 0.0314541 3.54901e-10
5.86803e-09 0.0314541 7.40955e-10
5.17825e-09 0.0314541 4.88458e-10
5.29186e-09 0.0314541 6.44524e-10
5.53877e-09 0.0314541 1.15913e-09
5.36027e-09 0.0314541 6.12379e-10
5.55001e-09 0.0326216 5.99018e-10
4.89224e-09 0.0326216 4.91725e-10
5.22087e-09 0.0326216 -5.59464e-12
5.50715e-09 0.0326216 4.59293e-10
5.82551e-09 0.0326216 -1.75859e-11
4.99982e-09 0.0326216 6.0201e-10
5.10531e-09 0.0326216 5.18556e-10
5.19836e-09 0.0326216 3.87119e-10
5.23182e-09 0.0326216 3.77876e-10
5.42679e-09 0.0326216 5.71133e-10
4.83016e-09 0.0326216 4.82018e-10
5.07194e-09 0.0326216 6.94249e-10
5.29892e-09 0.0326216 7.56052e-10
4.96211e-09 0.0326216 5.21813e-10
5.53867e-09 0.0326216 6.36059e-10
5.07328e-09 0.0326216 4.69992e-10
5.05773e-09 0.0326216 5.92548e-10
5.12848e-09 0.0326216 5.94397e-10
4.91743e-09 0.0326216 6.51162e-10
5.68457e-09 0.0326216 7.13394e-10
5.30443e-09 0.0326216 5.29741e-10
5.20714e-09 0.0326216 5.46793e-10
5.41484e-09 0.0326216 1.90316e-10
4.89224e-09 0.0326216 5.57718e-10
4.94369e-09 0.0326216 5.22611e-10
5.10484e-09 0.0337691 5.97109e-10
5.28093e-09 0.0337691 3.49402e-10
4.75224e-09 0.0337691 4.96386e-10