<?xml version="1.0"?>
<VTKFile type="UnstructuredGrid" version="0.1" byte_order="LittleEndian">
<UnstructuredGrid>
<Piece NumberOfPoints="1025" NumberOfCells="640">
<Points>
<DataArray type="Float32" NumberOfComponents="3" format="ascii">
0 0 0
0.025 0 0
0.05 0 0
0.075 0 0
0.1 0 0
0 0.025 0
0.025 0.025 0
0.05 0.025 0
0.075 0.025 0
0.1 0.025 0
0 0.05 0
0.025 0.05 0
0.05 0.05 0
0.075 0.05 0
0.1 0.05 0
0 0.075 0
0.025 0.075 0
0.05 0.075 0
0.075 0.075 0
0.1 0.075 0
0 0.1 0
0.025 0.1 0
0.05 0.1 0
0.075 0.1 0
0.1 0.1 0
0 0 0.025
0.025 0 0.025
0.05 0 0.025
0.075 0 0.025
0.1 0 0.025
0 0.025 0.025
0.025 0.025 0.025
0.05 0.025 0.025
0.075 0.025 0.025
0.1 0.025 0.025
0 0.05 0.025
0.025 0.05 0.025
0.05 0.05 0.025
0.075 0.05 0.025
0.1 0.05 0.025
0 0.075 0.025
0.025 0.075 0.025
0.05 0.075 0.025
0.075 0.075 0.025
0.1 0.075 0.025
0 0.1 0.025
0.025 0.1 0.025
0.05 0.1 0.025
0.075 0.1 0.025
0.1 0.1 0.025
0 0 0.05
0.025 0 0.05
0.05 0 0.05
0.075 0 0.05
0.1 0 0.05
0 0.025 0.05
0.025 0.025 0.05
0.05 0.025 0.05
0.075 0.025 0.05
0.1 0.025 0.05
0 0.05 0.05
0.025 0.05 0.05
0.05 0.05 0.05
0.075 0.05 0.05
0.1 0.05 0.05
0 0.075 0.05
0.025 0.075 0.05
0.05 0.075 0.05
0.075 0.075 0.05
0.1 0.075 0.05
0 0.1 0.05
0.025 0.1 0.05
0.05 0.1 0.05
0.075 0.1 0.05
0.1 0.1 0.05
0 0 0.075
0.025 0 0.075
0.05 0 0.075
0.075 0 0.075
0.1 0 0.075
0 0.025 0.075
0.025 0.025 0.075
0.05 0.025 0.075
0.075 0.025 0.075
0.1 0.025 0.075
0 0.05 0.075
0.025 0.05 0.075
0.05 0.05 0.075
0.075 0.05 0.075
0.1 0.05 0.075
0 0.075 0.075
0.025 0.075 0.075
0.05 0.075 0.075
0.075 0.075 0.075
0.1 0.075 0.075
0 0.1 0.075
0.025 0.1 0.075
0.05 0.1 0.075
0.075 0.1 0.075
0.1 0.1 0.075
0 0 0.1
0.025 0 0.1
0.05 0 0.1
0.075 0 0.1
0.1 0 0.1
0 0.025 0.1
0.025 0.025 0.1
0.05 0.025 0.1
0.075 0.025 0.1
0.1 0.025 0.1
0 0.05 0.1
0.025 0.05 0.1
0.05 0.05 0.1
0.075 0.05 0.1
0.1 0.05 0.1
0 0.075 0.1
0.025 0.075 0.1
0.05 0.075 0.1
0.075 0.075 0.1
0.1 0.075 0.1
0 0.1 0.1
0.025 0.1 0.1
0.05 0.1 0.1
0.075 0.1 0.1
0.1 0.1 0.1
0 0 0.125
0.025 0 0.125
0.05 0 0.125
0.075 0 0.125
0.1 0 0.125
0 0.025 0.125
0.025 0.025 0.125
0.05 0.025 0.125
0.075 0.025 0.125
0.1 0.025 0.125
0 0.05 0.125
0.025 0.05 0.125
0.05 0.05 0.125
0.075 0.05 0.125
0.1 0.05 0.125
0 0.075 0.125
0.025 0.075 0.125
0.05 0.075 0.125
0.075 0.075 0.125
0.1 0.075 0.125
0 0.1 0.125
0.025 0.1 0.125
0.05 0.1 0.125
0.075 0.1 0.125
0.1 0.1 0.125
0 0 0.15
0.025 0 0.15
0.05 0 0.15
0.075 0 0.15
0.1 0 0.15
0 0.025 0.15
0.025 0.025 0.15
0.05 0.025 0.15
0.075 0.025 0.15
0.1 0.025 0.15
0 0.05 0.15
0.025 0.05 0.15
0.05 0.05 0.15
0.075 0.05 0.15
0.1 0.05 0.15
0 0.075 0.15
0.025 0.075 0.15
0.05 0.075 0.15
0.075 0.075 0.15
0.1 0.075 0.15
0 0.1 0.15
0.025 0.1 0.15
0.05 0.1 0.15
0.075 0.1 0.15
0.1 0.1 0.15
0 0 0.175
0.025 0 0.175
0.05 0 0.175
0.075 0 0.175
0.1 0 0.175
0 0.025 0.175
0.025 0.025 0.175
0.05 0.025 0.175
0.075 0.025 0.175
0.1 0.025 0.175
0 0.05 0.175
0.025 0.05 0.175
0.05 0.05 0.175
0.075 0.05 0.175
0.1 0.05 0.175
0 0.075 0.175
0.025 0.075 0.175
0.05 0.075 0.175
0.075 0.075 0.175
0.1 0.075 0.175
0 0.1 0.175
0.025 0.1 0.175
0.05 0.1 0.175
0.075 0.1 0.175
0.1 0.1 0.175
0 0 0.2
0.025 0 0.2
0.05 0 0.2
0.075 0 0.2
0.1 0 0.2
0 0.025 0.2
0.025 0.025 0.2
0.05 0.025 0.2
0.075 0.025 0.2
0.1 0.025 0.2
0 0.05 0.2
0.025 0.05 0.2
0.05 0.05 0.2
0.075 0.05 0.2
0.1 0.05 0.2
0 0.075 0.2
0.025 0.075 0.2
0.05 0.075 0.2
0.075 0.075 0.2
0.1 0.075 0.2
0 0.1 0.2
0.025 0.1 0.2
0.05 0.1 0.2
0.075 0.1 0.2
0.1 0.1 0.2
0 0 0.225
0.025 0 0.225
0.05 0 0.225
0.075 0 0.225
0.1 0 0.225
0 0.025 0.225
0.025 0.025 0.225
0.05 0.025 0.225
0.075 0.025 0.225
0.1 0.025 0.225
0 0.05 0.225
0.025 0.05 0.225
0.05 0.05 0.225
0.075 0.05 0.225
0.1 0.05 0.225
0 0.075 0.225
0.025 0.075 0.225
0.05 0.075 0.225
0.075 0.075 0.225
0.1 0.075 0.225
0 0.1 0.225
0.025 0.1 0.225
0.05 0.1 0.225
0.075 0.1 0.225
0.1 0.1 0.225
0 0 0.25
0.025 0 0.25
0.05 0 0.25
0.075 0 0.25
0.1 0 0.25
0 0.025 0.25
0.025 0.025 0.25
0.05 0.025 0.25
0.075 0.025 0.25
0.1 0.025 0.25
0 0.05 0.25
0.025 0.05 0.25
0.05 0.05 0.25
0.075 0.05 0.25
0.1 0.05 0.25
0 0.075 0.25
0.025 0.075 0.25
0.05 0.075 0.25
0.075 0.075 0.25
0.1 0.075 0.25
0 0.1 0.25
0.025 0.1 0.25
0.05 0.1 0.25
0.075 0.1 0.25
0.1 0.1 0.25
0 0 0.275
0.025 0 0.275
0.05 0 0.275
0.075 0 0.275
0.1 0 0.275
0 0.025 0.275
0.025 0.025 0.275
0.05 0.025 0.275
0.075 0.025 0.275
0.1 0.025 0.275
0 0.05 0.275
0.025 0.05 0.275
0.05 0.05 0.275
0.075 0.05 0.275
0.1 0.05 0.275
0 0.075 0.275
0.025 0.075 0.275
0.05 0.075 0.275
0.075 0.075 0.275
0.1 0.075 0.275
0 0.1 0.275
0.025 0.1 0.275
0.05 0.1 0.275
0.075 0.1 0.275
0.1 0.1 0.275
0 0 0.3
0.025 0 0.3
0.05 0 0.3
0.075 0 0.3
0.1 0 0.3
0 0.025 0.3
0.025 0.025 0.3
0.05 0.025 0.3
0.075 0.025 0.3
0.1 0.025 0.3
0 0.05 0.3
0.025 0.05 0.3
0.05 0.05 0.3
0.075 0.05 0.3
0.1 0.05 0.3
0 0.075 0.3
0.025 0.075 0.3
0.05 0.075 0.3
0.075 0.075 0.3
0.1 0.075 0.3
0 0.1 0.3
0.025 0.1 0.3
0.05 0.1 0.3
0.075 0.1 0.3
0.1 0.1 0.3
0 0 0.325
0.025 0 0.325
0.05 0 0.325
0.075 0 0.325
0.1 0 0.325
0 0.025 0.325
0.025 0.025 0.325
0.05 0.025 0.325
0.075 0.025 0.325
0.1 0.025 0.325
0 0.05 0.325
0.025 0.05 0.325
0.05 0.05 0.325
0.075 0.05 0.325
0.1 0.05 0.325
0 0.075 0.325
0.025 0.075 0.325
0.05 0.075 0.325
0.075 0.075 0.325
0.1 0.075 0.325
0 0.1 0.325
0.025 0.1 0.325
0.05 0.1 0.325
0.075 0.1 0.325
0.1 0.1 0.325
0 0 0.35
0.025 0 0.35
0.05 0 0.35
0.075 0 0.35
0.1 0 0.35
0 0.025 0.35
0.025 0.025 0.35
0.05 0.025 0.35
0.075 0.025 0.35
0.1 0.025 0.35
0 0.05 0.35
0.025 0.05 0.35
0.05 0.05 0.35
0.075 0.05 0.35
0.1 0.05 0.35
0 0.075 0.35
0.025 0.075 0.35
0.05 0.075 0.35
0.075 0.075 0.35
0.1 0.075 0.35
0 0.1 0.35
0.025 0.1 0.35
0.05 0.1 0.35
0.075 0.1 0.35
0.1 0.1 0.35
0 0 0.375
0.025 0 0.375
0.05 0 0.375
0.075 0 0.375
0.1 0 0.375
0 0.025 0.375
0.025 0.025 0.375
0.05 0.025 0.375
0.075 0.025 0.375
0.1 0.025 0.375
0 0.05 0.375
0.025 0.05 0.375
0.05 0.05 0.375
0.075 0.05 0.375
0.1 0.05 0.375
0 0.075 0.375
0.025 0.075 0.375
0.05 0.075 0.375
0.075 0.075 0.375
0.1 0.075 0.375
0 0.1 0.375
0.025 0.1 0.375
0.05 0.1 0.375
0.075 0.1 0.375
0.1 0.1 0.375
0 0 0.4
0.025 0 0.4
0.05 0 0.4
0.075 0 0.4
0.1 0 0.4
0 0.025 0.4
0.025 0.025 0.4
0.05 0.025 0.4
0.075 0.025 0.4
0.1 0.025 0.4
0 0.05 0.4
0.025 0.05 0.4
0.05 0.05 0.4
0.075 0.05 0.4
0.1 0.05 0.4
0 0.075 0.4
0.025 0.075 0.4
0.05 0.075 0.4
0.075 0.075 0.4
0.1 0.075 0.4
0 0.1 0.4
0.025 0.1 0.4
0.05 0.1 0.4
0.075 0.1 0.4
0.1 0.1 0.4
0 0 0.425
0.025 0 0.425
0.05 0 0.425
0.075 0 0.425
0.1 0 0.425
0 0.025 0.425
0.025 0.025 0.425
0.05 0.025 0.425
0.075 0.025 0.425
0.1 0.025 0.425
0 0.05 0.425
0.025 0.05 0.425
0.05 0.05 0.425
0.075 0.05 0.425
0.1 0.05 0.425
0 0.075 0.425
0.025 0.075 0.425
0.05 0.075 0.425
0.075 0.075 0.425
0.1 0.075 0.425
0 0.1 0.425
0.025 0.1 0.425
0.05 0.1 0.425
0.075 0.1 0.425
0.1 0.1 0.425
0 0 0.45
0.025 0 0.45
0.05 0 0.45
0.075 0 0.45
0.1 0 0.45
0 0.025 0.45
0.025 0.025 0.45
0.05 0.025 0.45
0.075 0.025 0.45
0.1 0.025 0.45
0 0.05 0.45
0.025 0.05 0.45
0.05 0.05 0.45
0.075 0.05 0.45
0.1 0.05 0.45
0 0.075 0.45
0.025 0.075 0.45
0.05 0.075 0.45
0.075 0.075 0.45
0.1 0.075 0.45
0 0.1 0.45
0.025 0.1 0.45
0.05 0.1 0.45
0.075 0.1 0.45
0.1 0.1 0.45
0 0 0.475
0.025 0 0.475
0.05 0 0.475
0.075 0 0.475
0.1 0 0.475
0 0.025 0.475
0.025 0.025 0.475
0.05 0.025 0.475
0.075 0.025 0.475
0.1 0.025 0.475
0 0.05 0.475
0.025 0.05 0.475
0.05 0.05 0.475
0.075 0.05 0.475
0.1 0.05 0.475
0 0.075 0.475
0.025 0.075 0.475
0.05 0.075 0.475
0.075 0.075 0.475
0.1 0.075 0.475
0 0.1 0.475
0.025 0.1 0.475
0.05 0.1 0.475
0.075 0.1 0.475
0.1 0.1 0.475
0 0 0.5
0.025 0 0.5
0.05 0 0.5
0.075 0 0.5
0.1 0 0.5
0 0.025 0.5
0.025 0.025 0.5
0.05 0.025 0.5
0.075 0.025 0.5
0.1 0.025 0.5
0 0.05 0.5
0.025 0.05 0.5
0.05 0.05 0.5
0.075 0.05 0.5
0.1 0.05 0.5
0 0.075 0.5
0.025 0.075 0.5
0.05 0.075 0.5
0.075 0.075 0.5
0.1 0.075 0.5
0 0.1 0.5
0.025 0.1 0.5
0.05 0.1 0.5
0.075 0.1 0.5
0.1 0.1 0.5
0 0 0.525
0.025 0 0.525
0.05 0 0.525
0.075 0 0.525
0.1 0 0.525
0 0.025 0.525
0.025 0.025 0.525
0.05 0.025 0.525
0.075 0.025 0.525
0.1 0.025 0.525
0 0.05 0.525
0.025 0.05 0.525
0.05 0.05 0.525
0.075 0.05 0.525
0.1 0.05 0.525
0 0.075 0.525
0.025 0.075 0.525
0.05 0.075 0.525
0.075 0.075 0.525
0.1 0.075 0.525
0 0.1 0.525
0.025 0.1 0.525
0.05 0.1 0.525
0.075 0.1 0.525
0.1 0.1 0.525
0 0 0.55
0.025 0 0.55
0.05 0 0.55
0.075 0 0.55
0.1 0 0.55
0 0.025 0.55
0.025 0.025 0.55
0.05 0.025 0.55
0.075 0.025 0.55
0.1 0.025 0.55
0 0.05 0.55
0.025 0.05 0.55
0.05 0.05 0.55
0.075 0.05 0.55
0.1 0.05 0.55
0 0.075 0.55
0.025 0.075 0.55
0.05 0.075 0.55
0.075 0.075 0.55
0.1 0.075 0.55
0 0.1 0.55
0.025 0.1 0.55
0.05 0.1 0.55
0.075 0.1 0.55
0.1 0.1 0.55
0 0 0.575
0.025 0 0.575
0.05 0 0.575
0.075 0 0.575
0.1 0 0.575
0 0.025 0.575
0.025 0.025 0.575
0.05 0.025 0.575
0.075 0.025 0.575
0.1 0.025 0.575
0 0.05 0.575
0.025 0.05 0.575
0.05 0.05 0.575
0.075 0.05 0.575
0.1 0.05 0.575
0 0.075 0.575
0.025 0.075 0.575
0.05 0.075 0.575
0.075 0.075 0.575
0.1 0.075 0.575
0 0.1 0.575
0.025 0.1 0.575
0.05 0.1 0.575
0.075 0.1 0.575
0.1 0.1 0.575
0 0 0.6
0.025 0 0.6
0.05 0 0.6
0.075 0 0.6
0.1 0 0.6
0 0.025 0.6
0.025 0.025 0.6
0.05 0.025 0.6
0.075 0.025 0.6
0.1 0.025 0.6
0 0.05 0.6
0.025 0.05 0.6
0.05 0.05 0.6
0.075 0.05 0.6
0.1 0.05 0.6
0 0.075 0.6
0.025 0.075 0.6
0.05 0.075 0.6
0.075 0.075 0.6
0.1 0.075 0.6
0 0.1 0.6
0.025 0.1 0.6
0.05 0.1 0.6
0.075 0.1 0.6
0.1 0.1 0.6
0 0 0.625
0.025 0 0.625
0.05 0 0.625
0.075 0 0.625
0.1 0 0.625
0 0.025 0.625
0.025 0.025 0.625
0.05 0.025 0.625
0.075 0.025 0.625
0.1 0.025 0.625
0 0.05 0.625
0.025 0.05 0.625
0.05 0.05 0.625
0.075 0.05 0.625
0.1 0.05 0.625
0 0.075 0.625
0.025 0.075 0.625
0.05 0.075 0.625
0.075 0.075 0.625
0.1 0.075 0.625
0 0.1 0.625
0.025 0.1 0.625
0.05 0.1 0.625
0.075 0.1 0.625
0.1 0.1 0.625
0 0 0.65
0.025 0 0.65
0.05 0 0.65
0.075 0 0.65
0.1 0 0.65
0 0.025 0.65
0.025 0.025 0.65
0.05 0.025 0.65
0.075 0.025 0.65
0.1 0.025 0.65
0 0.05 0.65
0.025 0.05 0.65
0.05 0.05 0.65
0.075 0.05 0.65
0.1 0.05 0.65
0 0.075 0.65
0.025 0.075 0.65
0.05 0.075 0.65
0.075 0.075 0.65
0.1 0.075 0.65
0 0.1 0.65
0.025 0.1 0.65
0.05 0.1 0.65
0.075 0.1 0.65
0.1 0.1 0.65
0 0 0.675
0.025 0 0.675
0.05 0 0.675
0.075 0 0.675
0.1 0 0.675
[...]
<PointData Vectors="Displacement">
<DataArray type="Float32" Name="Displacement" NumberOfComponents="3" format="ascii">
0 0 0
0 0 0
0 0 0
0 0 0
0 0 0
0 0 0
0 0 0
0 0 0
0 0 0
0 0 0
0 0 0
0 0 0
0 0 0
0 0 0
0 0 0
0 0 0
0 0 0
0 0 0
0 0 0
0 0 0
0 0 0
0 0 0
0 0 0
0 0 0
0 0 0
1.27089e-10 0.00120831 1.13811e-09
-9.60768e-11 0.00120831 1.14264e-09
-2.15776e-10 0.00120831 1.15335e-09
-3.34557e-10 0.00120831 1.15142e-09
-5.29217e-10 0.00120831 1.14539e-09
1.24423e-10 0.00120831 1.14722e-09
-8.96391e-11 0.00120831 1.13826e-09
-2.1641e-10 0.00120831 1.1415e-09
-3.39648e-10 0.00120831 1.1467e-09
-5.00715e-10 0.00120831 1.14466e-09
1.30459e-10 0.00120831 1.15652e-09
-9.03761e-11 0.00120831 1.14545e-09
-2.23938e-10 0.00120831 1.13561e-09
-3.29564e-10 0.00120831 1.13976e-09
-5.30069e-10 0.00120831 1.13192e-09
1.64925e-10 0.00120831 1.16524e-09
-9.18053e-11 0.00120831 1.14947e-09
-2.05566e-10 0.00120831 1.15681e-09
-3.40439e-10 0.00120831 1.15199e-09
-5.53781e-10 0.00120831 1.13987e-09
1.45713e-10 0.00120831 1.15105e-09
-7.21387e-11 0.00120831 1.17518e-09
-2.17021e-10 0.00120831 1.15639e-09
-3.50184e-10 0.00120831 1.14689e-09
-5.78799e-10 0.00120831 1.16933e-09
-2.66085e-11 0.00241689 2.34861e-09
-2.22152e-10 0.00241689 2.34582e-09
-4.18398e-10 0.00241689 2.38314e-09
-6.23584e-10 0.00241689 2.35949e-09
-7.90886e-10 0.00241689 2.33868e-09
-3.89919e-11 0.00241689 2.36959e-09
-2.34805e-10 0.00241689 2.35807e-09
-4.38685e-10 0.00241689 2.3656e-09
-6.06693e-10 0.00241689 2.35584e-09
-8.09325e-10 0.00241689 2.33863e-09
-3.20211e-12 0.00241689 2.33279e-09
-2.42129e-10 0.00241689 2.35183e-09
-4.31345e-10 0.00241689 2.30754e-09
-6.37266e-10 0.00241689 2.33538e-09
-7.49667e-10 0.00241689 2.33738e-09
3.14335e-11 0.00241689 2.36614e-09
-2.24705e-10 0.00241689 2.35369e-09
-4.30832e-10 0.00241689 2.34573e-09
-6.42005e-10 0.00241689 2.32864e-09
-8.57184e-10 0.00241689 2.31457e-09
9.19756e-11 0.00241689 2.3618e-09
-2.28666e-10 0.00241689 2.36874e-09
-4.40516e-10 0.00241689 2.35644e-09
-6.35937e-10 0.00241689 2.35692e-09
-8.81649e-10 0.00241689 2.31708e-09
-2.23816e-10 0.00362599 3.59887e-09
-4.49229e-10 0.00362598 3.5937e-09
-6.50129e-10 0.00362598 3.65585e-09
-9.23983e-10 0.00362599 3.64129e-09
-1.04554e-09 0.00362599 3.58891e-09
-2.13537e-10 0.00362599 3.57497e-09
-4.66354e-10 0.00362598 3.59634e-09
-6.49254e-10 0.00362598 3.58451e-09
-8.79056e-10 0.00362598 3.60051e-09
-1.04554e-09 0.00362598 3.58731e-09
-2.10753e-10 0.00362598 3.60387e-09
-4.61353e-10 0.00362598 3.5767e-09
-6.70492e-10 0.00362598 3.57871e-09
-8.49673e-10 0.00362598 3.55387e-09
-1.04949e-09 0.00362598 3.5582e-09
-1.74268e-10 0.00362598 3.57375e-09
-4.31471e-10 0.00362598 3.59838e-09
-6.83864e-10 0.00362598 3.54765e-09
-8.82989e-10 0.00362598 3.54021e-09
-1.07044e-09 0.00362598 3.55919e-09
-1.62463e-10 0.00362598 3.59325e-09
-4.40322e-10 0.00362598 3.58567e-09
-6.58552e-10 0.00362598 3.53088e-09
-9.10478e-10 0.00362598 3.53025e-09
-1.10667e-09 0.00362598 3.52948e-09
-5.28172e-10 0.00483586 4.86199e-09
-7.05438e-10 0.00483586 4.81953e-09
-8.30856e-10 0.00483586 4.81553e-09
-1.16688e-09 0.00483586 4.81096e-09
-1.33832e-09 0.00483586 4.90509e-09
-4.94296e-10 0.00483586 4.85019e-09
-6.98779e-10 0.00483586 4.8394e-09
-8.61332e-10 0.00483586 4.8051e-09
-1.12221e-09 0.00483586 4.85154e-09
-1.31308e-09 0.00483586 4.84554e-09
-5.14948e-10 0.00483586 4.79354e-09
-7.14355e-10 0.00483586 4.81265e-09
-9.01638e-10 0.00483586 4.81811e-09
-1.11796e-09 0.00483586 4.82658e-09
-1.19938e-09 0.00483586 4.8102e-09
-4.1905e-10 0.00483586 4.81492e-09
-7.12398e-10 0.00483586 4.79805e-09
-9.32979e-10 0.00483586 4.76534e-09
-1.09878e-09 0.00483586 4.76002e-09
-1.22276e-09 0.00483586 4.75414e-09
-4.38189e-10 0.00483586 4.7899e-09
-6.76559e-10 0.00483586 4.80449e-09
-9.24529e-10 0.00483586 4.73162e-09
-1.09415e-09 0.00483585 4.77297e-09
-1.3362e-09 0.00483586 4.72181e-09
-7.36064e-10 0.00604676 6.00594e-09
-1.01133e-09 0.00604676 6.0976e-09
-1.20223e-09 0.00604676 6.01523e-09
-1.34952e-09 0.00604676 6.02102e-09
-1.42231e-09 0.00604676 6.03671e-09
-7.5362e-10 0.00604676 6.03251e-09
-9.67361e-10 0.00604676 6.07201e-09
-1.1232e-09 0.00604676 6.03992e-09
-1.3249e-09 0.00604676 6.05106e-09
-1.59943e-09 0.00604676 6.07194e-09
-8.06689e-10 0.00604676 6.06101e-09
-9.96376e-10 0.00604676 6.08707e-09
-1.13404e-09 0.00604676 6.06021e-09
-1.35963e-09 0.00604676 6.07162e-09
-1.4912e-09 0.00604676 6.12163e-09
-7.93521e-10 0.00604676 6.05895e-09
-9.58697e-10 0.00604676 6.08105e-09
-1.16215e-09 0.00604676 6.04127e-09
-1.36694e-09 0.00604676 6.07825e-09
-1.4124e-09 0.00604676 6.05619e-09
-6.7467e-10 0.00604676 6.14616e-09
-9.93949e-10 0.00604676 6.05172e-09
-1.10659e-09 0.00604676 6.07294e-09
-1.39059e-09 0.00604676 5.99608e-09
-1.42855e-09 0.00604675 6.04607e-09
-8.96538e-10 0.00725893 7.19766e-09
-1.30412e-09 0.00725893 7.2538e-09
-1.35813e-09 0.00725893 7.27265e-09
-1.68652e-09 0.00725893 7.24798e-09
-1.72397e-09 0.00725893 7.27022e-09
-1.09203e-09 0.00725893 7.21813e-09
-1.25629e-09 0.00725893 7.24439e-09
-1.40963e-09 0.00725893 7.20238e-09
-1.62003e-09 0.00725893 7.31299e-09
-1.77597e-09 0.00725893 7.25811e-09
-1.03165e-09 0.00725893 7.34123e-09
-1.27313e-09 0.00725893 7.2616e-09
-1.43429e-09 0.00725893 7.31766e-09
-1.60815e-09 0.00725893 7.28966e-09
-1.83033e-09 0.00725893 7.28046e-09
-1.01523e-09 0.00725893 7.30812e-09
-1.28842e-09 0.00725893 7.34734e-09
-1.42358e-09 0.00725893 7.35654e-09
-1.59363e-09 0.00725893 7.32108e-09
-1.81108e-09 0.00725893 7.33256e-09
-1.09814e-09 0.00725893 7.37993e-09
-1.23189e-09 0.00725893 7.36506e-09
-1.40504e-09 0.00725893 7.32533e-09
-1.63178e-09 0.00725893 7.29735e-09
-1.68289e-09 0.00725893 7.28673e-09
-1.42326e-09 0.00847261 8.43485e-09
-1.58622e-09 0.00847261 8.47338e-09
-1.71301e-09 0.00847261 8.43989e-09
-1.84583e-09 0.00847261 8.34903e-09
-2.04273e-09 0.00847261 8.4738e-09
-1.36697e-09 0.00847261 8.50167e-09
-1.57883e-09 0.00847261 8.46164e-09
-1.74979e-09 0.00847261 8.45993e-09
-1.89978e-09 0.00847261 8.43208e-09
-2.06951e-09 0.00847261 8.46423e-09
-1.304e-09 0.00847261 8.53844e-09
-1.59419e-09 0.00847261 8.58802e-09
-1.74688e-09 0.00847261 8.54411e-09
-1.93625e-09 0.00847261 8.55601e-09
-2.0405e-09 0.00847261 8.50028e-09
-1.35438e-09 0.00847261 8.62122e-09
-1.55081e-09 0.00847261 8.51324e-09
-1.76897e-09 0.0084726 8.57931e-09
-1.94862e-09 0.00847261 8.58807e-09
-2.11292e-09 0.0084726 8.53328e-09
-1.31235e-09 0.00847261 8.61782e-09
-1.57455e-09 0.00847261 8.62298e-09
-1.76773e-09 0.0084726 8.57861e-09
-1.89888e-09 0.0084726 8.57768e-09
-2.08845e-09 0.00847261 8.62717e-09
-1.78921e-09 0.00968802 9.61748e-09
-1.95813e-09 0.00968802 9.86937e-09
-1.93886e-09 0.00968802 9.61499e-09
-2.40703e-09 0.00968802 9.63494e-09
-2.27905e-09 0.00968802 9.7212e-09
-1.80545e-09 0.00968802 9.82605e-09
-1.90883e-09 0.00968802 9.80259e-09
-2.0606e-09 0.00968802 9.775e-09
-2.31549e-09 0.00968802 9.70335e-09
-2.27732e-09 0.00968802 9.73185e-09
-1.76377e-09 0.00968802 9.73031e-09
-1.89954e-09 0.00968802 9.72897e-09
-2.03075e-09 0.00968802 9.68047e-09
-2.39788e-09 0.00968802 9.78397e-09
-2.37831e-09 0.00968802 9.7375e-09
-1.68541e-09 0.00968802 9.84225e-09
-1.92298e-09 0.00968802 9.82417e-09
-2.06455e-09 0.00968802 9.85985e-09
-2.34841e-09 0.00968802 9.82177e-09
-2.53319e-09 0.00968802 9.88493e-09
-1.36347e-09 0.00968802 9.73652e-09
-2.04127e-09 0.00968802 9.84124e-09
-2.09266e-09 0.00968802 9.72951e-09
-2.22538e-09 0.00968802 9.94996e-09
-2.64806e-09 0.00968802 9.70801e-09
-1.83257e-09 0.0109054 1.10253e-08
-2.24076e-09 0.0109054 1.08892e-08
-2.50086e-09 0.0109054 1.08015e-08
-2.5901e-09 0.0109054 1.09864e-08
-2.73078e-09 0.0109054 1.09304e-08
-2.15783e-09 0.0109054 1.08966e-08
-2.3114e-09 0.0109054 1.09139e-08
-2.4337e-09 0.0109054 1.09607e-08
-2.66599e-09 0.0109054 1.09146e-08
-2.78321e-09 0.0109054 1.09623e-08
-2.07442e-09 0.0109054 1.09859e-08
-2.30922e-09 0.0109054 1.09626e-08
-2.38699e-09 0.0109054 1.0843e-08
-2.68601e-09 0.0109054 1.09967e-08
-2.81585e-09 0.0109054 1.10717e-08
-2.26062e-09 0.0109054 1.08694e-08
-2.26924e-09 0.0109054 1.09299e-08
-2.43543e-09 0.0109054 1.09186e-08
-2.60506e-09 0.0109054 1.10674e-08
-2.84757e-09 0.0109054 1.1037e-08
-2.16252e-09 0.0109054 1.07973e-08
-2.20212e-09 0.0109054 1.08766e-08
-2.37839e-09 0.0109054 1.11426e-08
-2.77984e-09 0.0109054 1.11073e-08
-2.81408e-09 0.0109054 1.10198e-08
-2.83243e-09 0.0121249 1.22939e-08
-2.55378e-09 0.0121249 1.23787e-08
-2.80827e-09 0.0121249 1.21145e-08
-3.03154e-09 0.0121249 1.21735e-08
-3.13797e-09 0.0121249 1.23798e-08
-2.80501e-09 0.0121249 1.22245e-08
-2.69443e-09 0.0121249 1.22018e-08
-2.80397e-09 0.0121249 1.20993e-08
-3.02922e-09 0.0121249 1.22294e-08
-2.91754e-09 0.0121249 1.22347e-08
-2.78522e-09 0.0121249 1.21534e-08
-2.714e-09 0.0121249 1.21376e-08
-2.88084e-09 0.0121249 1.21833e-08
-3.01787e-09 0.0121249 1.22415e-08
-3.00575e-09 0.0121249 1.21714e-08
-2.53752e-09 0.0121249 1.21033e-08
-2.70745e-09 0.0121249 1.21257e-08
-2.78964e-09 0.0121249 1.21639e-08
-2.99983e-09 0.0121249 1.21343e-08
-3.19671e-09 0.0121249 1.21493e-08
-2.76273e-09 0.0121249 1.21542e-08
-2.69185e-09 0.0121249 1.2018e-08
-2.61036e-09 0.0121249 1.21379e-08
-3.10665e-09 0.0121249 1.21258e-08
-3.22481e-09 0.0121249 1.2175e-08
-2.79947e-09 0.0133467 1.3518e-08
-3.03937e-09 0.0133467 1.34021e-08
-3.31564e-09 0.0133467 1.34039e-08
-3.4236e-09 0.0133467 1.37749e-08
-3.76149e-09 0.0133467 1.36654e-08
-2.94043e-09 0.0133467 1.35726e-08
-3.13816e-09 0.0133467 1.34386e-08
-3.27497e-09 0.0133467 1.33986e-08
-3.40827e-09 0.0133467 1.34879e-08
-3.58195e-09 0.0133467 1.35319e-08
-3.05135e-09 0.0133467 1.33694e-08
-3.12649e-09 0.0133467 1.34049e-08
-3.26793e-09 0.0133467 1.3388e-08
-3.45735e-09 0.0133467 1.32987e-08
-3.31918e-09 0.0133467 1.34727e-08
-3.09882e-09 0.0133467 1.34098e-08
-3.09864e-09 0.0133467 1.32548e-08
-3.24561e-09 0.0133467 1.33051e-08
-3.45802e-09 0.0133467 1.3418e-08
-3.31003e-09 0.0133467 1.33644e-08
-2.81978e-09 0.0133467 1.32201e-08
-3.11116e-09 0.0133467 1.34383e-08
-3.25144e-09 0.0133467 1.32176e-08
-3.10722e-09 0.0133467 1.32057e-08
-3.7491e-09 0.0133467 1.33214e-08
-3.17731e-09 0.0145711 1.45903e-08
-3.58264e-09 0.0145711 1.43697e-08
-3.60568e-09 0.0145711 1.46508e-08
-3.93443e-09 0.0145711 1.4561e-08
-4.38452e-09 0.0145711 1.45151e-08
-3.23433e-09 0.0145711 1.46207e-08
-3.451e-09 0.0145711 1.45091e-08
-3.69096e-09 0.0145711 1.46241e-08
-3.95162e-09 0.0145711 1.45866e-08
-4.08603e-09 0.0145711 1.46093e-08
-3.081e-09 0.0145711 1.45691e-08
-3.65351e-09 0.0145711 1.45505e-08
-3.68444e-09 0.0145711 1.4324e-08
-3.94588e-09 0.0145711 1.47956e-08
-3.79103e-09 0.0145711 1.45558e-08
-3.40995e-09 0.0145711 1.44615e-08
-3.55969e-09 0.0145711 1.45223e-08
-3.51882e-09 0.0145711 1.45566e-08
-3.82223e-09 0.0145711 1.44134e-08
-4.02244e-09 0.0145711 1.44547e-08
-3.42034e-09 0.0145711 1.45166e-08
-3.49387e-09 0.0145711 1.44742e-08
-3.4738e-09 0.0145711 1.44661e-08
-3.87196e-09 0.0145711 1.44801e-08
-4.2343e-09 0.0145711 1.44344e-08
-4.05099e-09 0.0157981 1.54935e-08
-3.66361e-09 0.0157981 1.55628e-08
-4.09079e-09 0.0157981 1.54362e-08
-4.45172e-09 0.0157981 1.55523e-08
-4.19691e-09 0.0157981 1.54731e-08
-3.57561e-09 0.0157981 1.54366e-08
-3.99159e-09 0.0157981 1.55444e-08
-4.09605e-09 0.0157981 1.55618e-08
-4.27119e-09 0.0157981 1.5604e-08
-4.59825e-09 0.0157981 1.57168e-08
-3.77363e-09 0.0157981 1.5495e-08
-3.96239e-09 0.0157981 1.54954e-08
-4.04854e-09 0.0157981 1.5652e-08
-4.13436e-09 0.0157981 1.56585e-08
-4.60039e-09 0.0157981 1.5733e-08
-3.91477e-09 0.0157981 1.56235e-08
-3.88446e-09 0.0157981 1.57103e-08
-3.98764e-09 0.0157981 1.56235e-08
-4.23904e-09 0.0157981 1.55987e-08
-4.31245e-09 0.0157981 1.55012e-08
-3.93602e-09 0.0157981 1.57581e-08
-3.93788e-09 0.0157981 1.58587e-08
-4.01803e-09 0.0157981 1.56296e-08
-4.14633e-09 0.0157981 1.55043e-08
-4.29987e-09 0.0157981 1.53638e-08
-3.94371e-09 0.017028 1.6571e-08
-4.28999e-09 0.017028 1.63753e-08
-4.49363e-09 0.017028 1.66187e-08
-4.6277e-09 0.017028 1.65322e-08
-5.00921e-09 0.017028 1.67431e-08
-3.93916e-09 0.017028 1.64019e-08
-4.31362e-09 0.017028 1.64723e-08
-4.43845e-09 0.017028 1.64408e-08
-4.70225e-09 0.017028 1.65574e-08
-4.87733e-09 0.017028 1.65036e-08
-4.32626e-09 0.017028 1.64724e-08
-4.25534e-09 0.017028 1.65232e-08
-4.28246e-09 0.017028 1.65965e-08
-4.64273e-09 0.017028 1.6433e-08
-4.92e-09 0.017028 1.65402e-08
-4.41393e-09 0.017028 1.66886e-08
-4.34578e-09 0.017028 1.66497e-08
-4.27828e-09 0.017028 1.67027e-08
-4.65617e-09 0.017028 1.64277e-08
-4.64164e-09 0.017028 1.64078e-08
-4.22335e-09 0.017028 1.68895e-08
-4.23501e-09 0.017028 1.68601e-08
-4.52607e-09 0.017028 1.65524e-08
-4.4751e-09 0.017028 1.64601e-08
-4.51953e-09 0.017028 1.66079e-08
-4.87221e-09 0.0182607 1.73473e-08
-4.74562e-09 0.0182607 1.74136e-08
-4.79929e-09 0.0182607 1.69915e-08
-5.05576e-09 0.0182607 1.71586e-08
-4.94529e-09 0.0182607 1.71373e-08
-4.60903e-09 0.0182607 1.73028e-08
-4.73135e-09 0.0182607 1.73951e-08
-4.75581e-09 0.0182607 1.73184e-08
-4.97182e-09 0.0182607 1.72236e-08
-5.39851e-09 0.0182607 1.7013e-08
-4.85817e-09 0.0182607 1.73854e-08
-4.69683e-09 0.0182607 1.72412e-08
-4.69818e-09 0.0182607 1.72832e-08
-5.04782e-09 0.0182607 1.71699e-08
-5.10324e-09 0.0182607 1.7067e-08
-4.42575e-09 0.0182607 1.73197e-08
-4.82695e-09 0.0182607 1.73463e-08
-4.82219e-09 0.0182607 1.72218e-08
-4.88771e-09 0.0182607 1.73117e-08
-4.92807e-09 0.0182607 1.7239e-08
-4.21797e-09 0.0182607 1.72769e-08
-4.92904e-09 0.0182607 1.71598e-08
-4.83042e-09 0.0182607 1.74922e-08
-5.10189e-09 0.0182607 1.72406e-08
-4.54491e-09 0.0182607 1.74496e-08
-5.51522e-09 0.0194965 1.81038e-08
-5.06121e-09 0.0194965 1.81889e-08
-5.25826e-09 0.0194965 1.83444e-08
-5.3982e-09 0.0194965 1.77155e-08
-4.97628e-09 0.0194965 1.78283e-08
-5.24943e-09 0.0194965 1.80018e-08
-5.05769e-09 0.0194965 1.8133e-08
-5.08278e-09 0.0194965 1.79699e-08
-5.35994e-09 0.0194965 1.77538e-08
-5.41693e-09 0.0194965 1.79061e-08
-5.02088e-09 0.0194965 1.80492e-08
-5.14221e-09 0.0194965 1.81293e-08
-5.09327e-09 0.0194965 1.80328e-08
-5.29064e-09 0.0194965 1.78233e-08
-5.43468e-09 0.0194965 1.79878e-08
-5.02533e-09 0.0194965 1.78567e-08
-5.2869e-09 0.0194965 1.79357e-08
-5.10848e-09 0.0194965 1.80894e-08
-5.2366e-09 0.0194965 1.82177e-08
-5.03203e-09 0.0194965 1.7925e-08
-5.3179e-09 0.0194965 1.80123e-08
-5.09915e-09 0.0194965 1.77513e-08
-5.39311e-09 0.0194965 1.78243e-08
-4.849e-09 0.0194965 1.81436e-08
-5.20522e-09 0.0194965 1.80521e-08
-5.24054e-09 0.0207355 1.8851e-08
-5.4601e-09 0.0207355 1.90082e-08
-5.21868e-09 0.0207355 1.88541e-08
-5.90718e-09 0.0207355 1.87222e-08
-5.84604e-09 0.0207355 1.84696e-08
-5.11291e-09 0.0207355 1.88077e-08
-5.4383e-09 0.0207355 1.86756e-08
-5.38282e-09 0.0207355 1.88004e-08
-5.78047e-09 0.0207355 1.86418e-08
-5.94457e-09 0.0207355 1.86865e-08
-5.10775e-09 0.0207355 1.85311e-08
-5.38757e-09 0.0207355 1.85347e-08
-5.43781e-09 0.0207355 1.85718e-08
-5.46179e-09 0.0207355 1.8664e-08
-5.53656e-09 0.0207355 1.8612e-08
-5.47529e-09 0.0207355 1.85353e-08
-5.46053e-09 0.0207355 1.85198e-08
-5.40786e-09 0.0207355 1.86016e-08
-5.37841e-09 0.0207355 1.85568e-08
-5.60807e-09 0.0207355 1.86913e-08
-4.99307e-09 0.0207355 1.84967e-08
-5.73378e-09 0.0207355 1.86561e-08
-5.18428e-09 0.0207355 1.88336e-08
-5.35437e-09 0.0207355 1.86067e-08
-5.73626e-09 0.0207355 1.88393e-08
-5.44358e-09 0.0219776 1.94265e-08
-5.49737e-09 0.0219776 1.93874e-08
-5.47453e-09 0.0219776 1.91673e-08
-5.91722e-09 0.0219776 1.90059e-08
-6.18359e-09 0.0219776 1.9322e-08
-5.54527e-09 0.0219776 1.91838e-08
-5.53697e-09 0.0219776 1.90561e-08
-5.55677e-09 0.0219776 1.92998e-08
-5.87463e-09 0.0219776 1.92671e-08
-6.03482e-09 0.0219776 1.90446e-08
-5.66447e-09 0.0219776 1.91996e-08
-5.626e-09 0.0219776 1.8935e-08
-5.58714e-09 0.0219776 1.90043e-08
-5.58295e-09 0.0219776 1.91351e-08
-5.80022e-09 0.0219776 1.91995e-08
-5.5624e-09 0.0219776 1.9123e-08
-5.60735e-09 0.0219776 1.90036e-08
-5.61541e-09 0.0219776 1.89774e-08
-5.68194e-09 0.0219776 1.90471e-08
-5.54767e-09 0.0219776 1.91445e-08
-5.64178e-09 0.0219776 1.92364e-08
-5.45456e-09 0.0219776 1.90276e-08
-5.57804e-09 0.0219776 1.90917e-08
-5.34847e-09 0.0219776 1.90827e-08
-5.96272e-09 0.0219776 1.92079e-08
-6.08754e-09 0.0232229 1.939e-08
-5.70885e-09 0.0232229 1.97526e-08
-6.03002e-09 0.0232229 1.93794e-08
-5.58545e-09 0.0232229 1.93981e-08
-5.77085e-09 0.0232229 1.9415e-08
-5.63634e-09 0.0232229 1.97697e-08
-5.76146e-09 0.0232229 1.94326e-08
-5.50564e-09 0.0232229 1.95028e-08
-5.762e-09 0.0232229 1.93592e-08
-5.79078e-09 0.0232229 1.92556e-08
-5.74983e-09 0.0232229 1.96465e-08
-5.62989e-09 0.0232229 1.97328e-08
-5.62735e-09 0.0232229 1.95902e-08
-5.63628e-09 0.0232229 1.94878e-08
-5.56191e-09 0.0232229 1.93639e-08
-5.58832e-09 0.0232229 1.9695e-08
-5.73707e-09 0.0232229 1.95629e-08
-5.67023e-09 0.0232229 1.98202e-08
-5.5972e-09 0.0232229 1.94387e-08
-5.52072e-09 0.0232229 1.96404e-08
-5.44538e-09 0.0232229 1.96268e-08
-5.82325e-09 0.0232229 1.98873e-08
-5.63499e-09 0.0232229 1.91183e-08
-5.57659e-09 0.0232229 1.95931e-08
-5.66928e-09 0.0232229 1.95884e-08
-6.59869e-09 0.0244715 2.0384e-08
-5.83313e-09 0.0244715 2.04065e-08
-5.4952e-09 0.0244715 1.9965e-08
-5.70838e-09 0.0244715 2.00716e-08
-5.20157e-09 0.0244715 1.9903e-08
-5.83123e-09 0.0244715 2.03694e-08
-5.76567e-09 0.0244715 2.00137e-08
-5.7425e-09 0.0244715 1.99326e-08
-5.64105e-09 0.0244715 1.97798e-08
-5.22828e-09 0.0244715 1.98434e-08
-5.60332e-09 0.0244715 2.0205e-08
-5.8792e-09 0.0244715 2.03924e-08
-5.66058e-09 0.0244715 2.0106e-08
-5.67039e-09 0.0244715 1.98884e-08
-5.40103e-09 0.0244715 1.98499e-08
-5.7359e-09 0.0244715 2.03434e-08
-5.74277e-09 0.0244715 2.01805e-08
-5.75355e-09 0.0244715 2.04364e-08
-5.61139e-09 0.0244715 2.029e-08
-5.60325e-09 0.0244715 2.00596e-08
-5.55891e-09 0.0244715 2.01345e-08
-5.84487e-09 0.0244715 2.02461e-08
-5.68115e-09 0.0244715 2.06044e-08
-5.60045e-09 0.0244715 2.02013e-08
-5.50698e-09 0.0244715 2.01149e-08
-5.8553e-09 0.0257233 2.13246e-08
-5.81828e-09 0.0257233 2.07058e-08
-5.23188e-09 0.0257233 2.05071e-08
-5.37468e-09 0.0257233 2.02586e-08
-5.13671e-09 0.0257233 2.08946e-08
-6.11943e-09 0.0257233 2.08231e-08
-5.69278e-09 0.0257233 2.08342e-08
-5.41318e-09 0.0257233 2.05746e-08
-5.41362e-09 0.0257233 2.06063e-08
-4.89416e-09 0.0257233 2.07647e-08
-5.93974e-09 0.0257233 2.07786e-08
-5.61473e-09 0.0257233 2.07631e-08
-5.5585e-09 0.0257233 2.08062e-08
-5.20603e-09 0.0257233 2.072e-08
-5.0841e-09 0.0257233 2.06306e-08
-5.76978e-09 0.0257233 2.08985e-08
-5.56895e-09 0.0257233 2.10232e-08
-5.39105e-09 0.0257233 2.10672e-08
-5.40134e-09 0.0257233 2.07381e-08
-5.43099e-09 0.0257233 2.07363e-08
-5.58514e-09 0.0257233 2.09827e-08
-5.50053e-09 0.0257233 2.08015e-08
-5.08319e-09 0.0257233 2.12355e-08
-5.66486e-09 0.0257233 2.1147e-08
-5.41596e-09 0.0257233 2.10181e-08
-5.49513e-09 0.0269784 2.10529e-08
-5.60124e-09 0.0269784 2.12218e-08
-5.26011e-09 0.0269784 2.09241e-08
-4.96347e-09 0.0269785 2.10959e-08
-4.44969e-09 0.0269784 2.16418e-08
-5.91485e-09 0.0269784 2.17518e-08
-5.44834e-09 0.0269784 2.11449e-08
-5.14701e-09 0.0269784 2.11975e-08
-4.8376e-09 0.0269784 2.1261e-08
-5.11223e-09 0.0269784 2.13914e-08
-5.99283e-09 0.0269784 2.11754e-08
-5.33462e-09 0.0269784 2.13862e-08
-4.94501e-09 0.0269784 2.14855e-08
-5.23897e-09 0.0269784 2.12781e-08
-4.35659e-09 0.0269784 2.13832e-08
-5.63153e-09 0.0269784 2.14682e-08
-5.2368e-09 0.0269784 2.13242e-08
-5.19393e-09 0.0269784 2.15262e-08
-5.18272e-09 0.0269784 2.14627e-08
-4.73183e-09 0.0269784 2.14478e-08
-5.35829e-09 0.0269784 2.1065e-08
-5.2035e-09 0.0269784 2.15278e-08
-5.10831e-09 0.0269784 2.12735e-08
-4.64502e-09 0.0269784 2.1468e-08
-5.50682e-09 0.0269784 2.17873e-08
-5.37017e-09 0.0282368 2.19697e-08
-5.12085e-09 0.0282368 2.1803e-08
-4.80749e-09 0.0282368 2.17236e-08
-4.72933e-09 0.0282367 2.18517e-08
-4.4718e-09 0.0282368 2.15903e-08
-5.37681e-09 0.0282368 2.18092e-08
-5.19156e-09 0.0282367 2.19984e-08
-4.69219e-09 0.0282368 2.19232e-08
-4.80042e-09 0.0282367 2.15887e-08
-4.76781e-09 0.0282368 2.18701e-08
-5.30946e-09 0.0282368 2.20622e-08
-5.05603e-09 0.0282367 2.21641e-08