<?xml version="1.0"?>
<VTKFile type="UnstructuredGrid" version="0.1" byte_order="LittleEndian">
<UnstructuredGrid>
<Piece NumberOfPoints="1025" NumberOfCells="640">
<Points>
<DataArray type="Float32" NumberOfComponents="3" format="ascii">
0 0 0
0.025 0 0
0.05 0 0
0.075 0 0
0.1 0 0
0 0.025 0
0.025 0.025 0
0.05 0.025 0
0.075 0.025 0
0.1 0.025 0
0 0.05 0
0.025 0.05 0
0.05 0.05 0
0.075 0.05 0
0.1 0.05 0
0 0.075 0
0.025 0.075 0
0.05 0.075 0
0.075 0.075 0
0.1 0.075 0
0 0.1 0
0.025 0.1 0
0.05 0.1 0
0.075 0.1 0
0.1 0.1 0
0 0 0.025
0.025 0 0.025
0.05 0 0.025
0.075 0 0.025
0.1 0 0.025
0 0.025 0.025
0.025 0.025 0.025
0.05 0.025 0.025
0.075 0.025 0.025
0.1 0.025 0.025
0 0.05 0.025
0.025 0.05 0.025
0.05 0.05 0.025
0.075 0.05 0.025
0.1 0.05 0.025
0 0.075 0.025
0.025 0.075 0.025
0.05 0.075 0.025
0.075 0.075 0.025
0.1 0.075 0.025
0 0.1 0.025
0.025 0.1 0.025
0.05 0.1 0.025
0.075 0.1 0.025
0.1 0.1 0.025
0 0 0.05
0.025 0 0.05
0.05 0 0.05
0.075 0 0.05
0.1 0 0.05
0 0.025 0.05
0.025 0.025 0.05
0.05 0.025 0.05
0.075 0.025 0.05
0.1 0.025 0.05
0 0.05 0.05
0.025 0.05 0.05
0.05 0.05 0.05
0.075 0.05 0.05
0.1 0.05 0.05
0 0.075 0.05
0.025 0.075 0.05
0.05 0.075 0.05
0.075 0.075 0.05
0.1 0.075 0.05
0 0.1 0.05
0.025 0.1 0.05
0.05 0.1 0.05
0.075 0.1 0.05
0.1 0.1 0.05
0 0 0.075
0.025 0 0.075
0.05 0 0.075
0.075 0 0.075
0.1 0 0.075
0 0.025 0.075
0.025 0.025 0.075
0.05 0.025 0.075
0.075 0.025 0.075
0.1 0.025 0.075
0 0.05 0.075
0.025 0.05 0.075
0.05 0.05 0.075
0.075 0.05 0.075
0.1 0.05 0.075
0 0.075 0.075
0.025 0.075 0.075
0.05 0.075 0.075
0.075 0.075 0.075
0.1 0.075 0.075
0 0.1 0.075
0.025 0.1 0.075
0.05 0.1 0.075
0.075 0.1 0.075
0.1 0.1 0.075
0 0 0.1
0.025 0 0.1
0.05 0 0.1
0.075 0 0.1
0.1 0 0.1
0 0.025 0.1
0.025 0.025 0.1
0.05 0.025 0.1
0.075 0.025 0.1
0.1 0.025 0.1
0 0.05 0.1
0.025 0.05 0.1
0.05 0.05 0.1
0.075 0.05 0.1
0.1 0.05 0.1
0 0.075 0.1
0.025 0.075 0.1
0.05 0.075 0.1
0.075 0.075 0.1
0.1 0.075 0.1
0 0.1 0.1
0.025 0.1 0.1
0.05 0.1 0.1
0.075 0.1 0.1
0.1 0.1 0.1
0 0 0.125
0.025 0 0.125
0.05 0 0.125
0.075 0 0.125
0.1 0 0.125
0 0.025 0.125
0.025 0.025 0.125
0.05 0.025 0.125
0.075 0.025 0.125
0.1 0.025 0.125
0 0.05 0.125
0.025 0.05 0.125
0.05 0.05 0.125
0.075 0.05 0.125
0.1 0.05 0.125
0 0.075 0.125
0.025 0.075 0.125
0.05 0.075 0.125
0.075 0.075 0.125
0.1 0.075 0.125
0 0.1 0.125
0.025 0.1 0.125
0.05 0.1 0.125
0.075 0.1 0.125
0.1 0.1 0.125
0 0 0.15
0.025 0 0.15
0.05 0 0.15
0.075 0 0.15
0.1 0 0.15
0 0.025 0.15
0.025 0.025 0.15
0.05 0.025 0.15
0.075 0.025 0.15
0.1 0.025 0.15
0 0.05 0.15
0.025 0.05 0.15
0.05 0.05 0.15
0.075 0.05 0.15
0.1 0.05 0.15
0 0.075 0.15
0.025 0.075 0.15
0.05 0.075 0.15
0.075 0.075 0.15
0.1 0.075 0.15
0 0.1 0.15
0.025 0.1 0.15
0.05 0.1 0.15
0.075 0.1 0.15
0.1 0.1 0.15
0 0 0.175
0.025 0 0.175
0.05 0 0.175
0.075 0 0.175
0.1 0 0.175
0 0.025 0.175
0.025 0.025 0.175
0.05 0.025 0.175
0.075 0.025 0.175
0.1 0.025 0.175
0 0.05 0.175
0.025 0.05 0.175
0.05 0.05 0.175
0.075 0.05 0.175
0.1 0.05 0.175
0 0.075 0.175
0.025 0.075 0.175
0.05 0.075 0.175
0.075 0.075 0.175
0.1 0.075 0.175
0 0.1 0.175
0.025 0.1 0.175
0.05 0.1 0.175
0.075 0.1 0.175
0.1 0.1 0.175
0 0 0.2
0.025 0 0.2
0.05 0 0.2
0.075 0 0.2
0.1 0 0.2
0 0.025 0.2
0.025 0.025 0.2
0.05 0.025 0.2
0.075 0.025 0.2
0.1 0.025 0.2
0 0.05 0.2
0.025 0.05 0.2
0.05 0.05 0.2
0.075 0.05 0.2
0.1 0.05 0.2
0 0.075 0.2
0.025 0.075 0.2
0.05 0.075 0.2
0.075 0.075 0.2
0.1 0.075 0.2
0 0.1 0.2
0.025 0.1 0.2
0.05 0.1 0.2
0.075 0.1 0.2
0.1 0.1 0.2
0 0 0.225
0.025 0 0.225
0.05 0 0.225
0.075 0 0.225
0.1 0 0.225
0 0.025 0.225
0.025 0.025 0.225
0.05 0.025 0.225
0.075 0.025 0.225
0.1 0.025 0.225
0 0.05 0.225
0.025 0.05 0.225
0.05 0.05 0.225
0.075 0.05 0.225
0.1 0.05 0.225
0 0.075 0.225
0.025 0.075 0.225
0.05 0.075 0.225
0.075 0.075 0.225
0.1 0.075 0.225
0 0.1 0.225
0.025 0.1 0.225
0.05 0.1 0.225
0.075 0.1 0.225
0.1 0.1 0.225
0 0 0.25
0.025 0 0.25
0.05 0 0.25
0.075 0 0.25
0.1 0 0.25
0 0.025 0.25
0.025 0.025 0.25
0.05 0.025 0.25
0.075 0.025 0.25
0.1 0.025 0.25
0 0.05 0.25
0.025 0.05 0.25
0.05 0.05 0.25
0.075 0.05 0.25
0.1 0.05 0.25
0 0.075 0.25
0.025 0.075 0.25
0.05 0.075 0.25
0.075 0.075 0.25
0.1 0.075 0.25
0 0.1 0.25
0.025 0.1 0.25
0.05 0.1 0.25
0.075 0.1 0.25
0.1 0.1 0.25
0 0 0.275
0.025 0 0.275
0.05 0 0.275
0.075 0 0.275
0.1 0 0.275
0 0.025 0.275
0.025 0.025 0.275
0.05 0.025 0.275
0.075 0.025 0.275
0.1 0.025 0.275
0 0.05 0.275
0.025 0.05 0.275
0.05 0.05 0.275
0.075 0.05 0.275
0.1 0.05 0.275
0 0.075 0.275
0.025 0.075 0.275
0.05 0.075 0.275
0.075 0.075 0.275
0.1 0.075 0.275
0 0.1 0.275
0.025 0.1 0.275
0.05 0.1 0.275
0.075 0.1 0.275
0.1 0.1 0.275
0 0 0.3
0.025 0 0.3
0.05 0 0.3
0.075 0 0.3
0.1 0 0.3
0 0.025 0.3
0.025 0.025 0.3
0.05 0.025 0.3
0.075 0.025 0.3
0.1 0.025 0.3
0 0.05 0.3
0.025 0.05 0.3
0.05 0.05 0.3
0.075 0.05 0.3
0.1 0.05 0.3
0 0.075 0.3
0.025 0.075 0.3
0.05 0.075 0.3
0.075 0.075 0.3
0.1 0.075 0.3
0 0.1 0.3
0.025 0.1 0.3
0.05 0.1 0.3
0.075 0.1 0.3
0.1 0.1 0.3
0 0 0.325
0.025 0 0.325
0.05 0 0.325
0.075 0 0.325
0.1 0 0.325
0 0.025 0.325
0.025 0.025 0.325
0.05 0.025 0.325
0.075 0.025 0.325
0.1 0.025 0.325
0 0.05 0.325
0.025 0.05 0.325
0.05 0.05 0.325
0.075 0.05 0.325
0.1 0.05 0.325
0 0.075 0.325
0.025 0.075 0.325
0.05 0.075 0.325
0.075 0.075 0.325
0.1 0.075 0.325
0 0.1 0.325
0.025 0.1 0.325
0.05 0.1 0.325
0.075 0.1 0.325
0.1 0.1 0.325
0 0 0.35
0.025 0 0.35
0.05 0 0.35
0.075 0 0.35
0.1 0 0.35
0 0.025 0.35
0.025 0.025 0.35
0.05 0.025 0.35
0.075 0.025 0.35
0.1 0.025 0.35
0 0.05 0.35
0.025 0.05 0.35
0.05 0.05 0.35
0.075 0.05 0.35
0.1 0.05 0.35
0 0.075 0.35
0.025 0.075 0.35
0.05 0.075 0.35
0.075 0.075 0.35
0.1 0.075 0.35
0 0.1 0.35
0.025 0.1 0.35
0.05 0.1 0.35
0.075 0.1 0.35
0.1 0.1 0.35
0 0 0.375
0.025 0 0.375
0.05 0 0.375
0.075 0 0.375
0.1 0 0.375
0 0.025 0.375
0.025 0.025 0.375
0.05 0.025 0.375
0.075 0.025 0.375
0.1 0.025 0.375
0 0.05 0.375
0.025 0.05 0.375
0.05 0.05 0.375
0.075 0.05 0.375
0.1 0.05 0.375
0 0.075 0.375
0.025 0.075 0.375
0.05 0.075 0.375
0.075 0.075 0.375
0.1 0.075 0.375
0 0.1 0.375
0.025 0.1 0.375
0.05 0.1 0.375
0.075 0.1 0.375
0.1 0.1 0.375
0 0 0.4
0.025 0 0.4
0.05 0 0.4
0.075 0 0.4
0.1 0 0.4
0 0.025 0.4
0.025 0.025 0.4
0.05 0.025 0.4
0.075 0.025 0.4
0.1 0.025 0.4
0 0.05 0.4
0.025 0.05 0.4
0.05 0.05 0.4
0.075 0.05 0.4
0.1 0.05 0.4
0 0.075 0.4
0.025 0.075 0.4
0.05 0.075 0.4
0.075 0.075 0.4
0.1 0.075 0.4
0 0.1 0.4
0.025 0.1 0.4
0.05 0.1 0.4
0.075 0.1 0.4
0.1 0.1 0.4
0 0 0.425
0.025 0 0.425
0.05 0 0.425
0.075 0 0.425
0.1 0 0.425
0 0.025 0.425
0.025 0.025 0.425
0.05 0.025 0.425
0.075 0.025 0.425
0.1 0.025 0.425
0 0.05 0.425
0.025 0.05 0.425
0.05 0.05 0.425
0.075 0.05 0.425
0.1 0.05 0.425
0 0.075 0.425
0.025 0.075 0.425
0.05 0.075 0.425
0.075 0.075 0.425
0.1 0.075 0.425
0 0.1 0.425
0.025 0.1 0.425
0.05 0.1 0.425
0.075 0.1 0.425
0.1 0.1 0.425
0 0 0.45
0.025 0 0.45
0.05 0 0.45
0.075 0 0.45
0.1 0 0.45
0 0.025 0.45
0.025 0.025 0.45
0.05 0.025 0.45
0.075 0.025 0.45
0.1 0.025 0.45
0 0.05 0.45
0.025 0.05 0.45
0.05 0.05 0.45
0.075 0.05 0.45
0.1 0.05 0.45
0 0.075 0.45
0.025 0.075 0.45
0.05 0.075 0.45
0.075 0.075 0.45
0.1 0.075 0.45
0 0.1 0.45
0.025 0.1 0.45
0.05 0.1 0.45
0.075 0.1 0.45
0.1 0.1 0.45
0 0 0.475
0.025 0 0.475
0.05 0 0.475
0.075 0 0.475
0.1 0 0.475
0 0.025 0.475
0.025 0.025 0.475
0.05 0.025 0.475
0.075 0.025 0.475
0.1 0.025 0.475
0 0.05 0.475
0.025 0.05 0.475
0.05 0.05 0.475
0.075 0.05 0.475
0.1 0.05 0.475
0 0.075 0.475
0.025 0.075 0.475
0.05 0.075 0.475
0.075 0.075 0.475
0.1 0.075 0.475
0 0.1 0.475
0.025 0.1 0.475
0.05 0.1 0.475
0.075 0.1 0.475
0.1 0.1 0.475
0 0 0.5
0.025 0 0.5
0.05 0 0.5
0.075 0 0.5
0.1 0 0.5
0 0.025 0.5
0.025 0.025 0.5
0.05 0.025 0.5
0.075 0.025 0.5
0.1 0.025 0.5
0 0.05 0.5
0.025 0.05 0.5
0.05 0.05 0.5
0.075 0.05 0.5
0.1 0.05 0.5
0 0.075 0.5
0.025 0.075 0.5
0.05 0.075 0.5
0.075 0.075 0.5
0.1 0.075 0.5
0 0.1 0.5
0.025 0.1 0.5
0.05 0.1 0.5
0.075 0.1 0.5
0.1 0.1 0.5
0 0 0.525
0.025 0 0.525
0.05 0 0.525
0.075 0 0.525
0.1 0 0.525
0 0.025 0.525
0.025 0.025 0.525
0.05 0.025 0.525
0.075 0.025 0.525
0.1 0.025 0.525
0 0.05 0.525
0.025 0.05 0.525
0.05 0.05 0.525
0.075 0.05 0.525
0.1 0.05 0.525
0 0.075 0.525
0.025 0.075 0.525
0.05 0.075 0.525
0.075 0.075 0.525
0.1 0.075 0.525
0 0.1 0.525
0.025 0.1 0.525
0.05 0.1 0.525
0.075 0.1 0.525
0.1 0.1 0.525
0 0 0.55
0.025 0 0.55
0.05 0 0.55
0.075 0 0.55
0.1 0 0.55
0 0.025 0.55
0.025 0.025 0.55
0.05 0.025 0.55
0.075 0.025 0.55
0.1 0.025 0.55
0 0.05 0.55
0.025 0.05 0.55
0.05 0.05 0.55
0.075 0.05 0.55
0.1 0.05 0.55
0 0.075 0.55
0.025 0.075 0.55
0.05 0.075 0.55
0.075 0.075 0.55
0.1 0.075 0.55
0 0.1 0.55
0.025 0.1 0.55
0.05 0.1 0.55
0.075 0.1 0.55
0.1 0.1 0.55
0 0 0.575
0.025 0 0.575
0.05 0 0.575
0.075 0 0.575
0.1 0 0.575
0 0.025 0.575
0.025 0.025 0.575
0.05 0.025 0.575
0.075 0.025 0.575
0.1 0.025 0.575
0 0.05 0.575
0.025 0.05 0.575
0.05 0.05 0.575
0.075 0.05 0.575
0.1 0.05 0.575
0 0.075 0.575
0.025 0.075 0.575
0.05 0.075 0.575
0.075 0.075 0.575
0.1 0.075 0.575
0 0.1 0.575
0.025 0.1 0.575
0.05 0.1 0.575
0.075 0.1 0.575
0.1 0.1 0.575
0 0 0.6
0.025 0 0.6
0.05 0 0.6
0.075 0 0.6
0.1 0 0.6
0 0.025 0.6
0.025 0.025 0.6
0.05 0.025 0.6
0.075 0.025 0.6
0.1 0.025 0.6
0 0.05 0.6
0.025 0.05 0.6
0.05 0.05 0.6
0.075 0.05 0.6
0.1 0.05 0.6
0 0.075 0.6
0.025 0.075 0.6
0.05 0.075 0.6
0.075 0.075 0.6
0.1 0.075 0.6
0 0.1 0.6
0.025 0.1 0.6
0.05 0.1 0.6
0.075 0.1 0.6
0.1 0.1 0.6
0 0 0.625
0.025 0 0.625
0.05 0 0.625
0.075 0 0.625
0.1 0 0.625
0 0.025 0.625
0.025 0.025 0.625
0.05 0.025 0.625
0.075 0.025 0.625
0.1 0.025 0.625
0 0.05 0.625
0.025 0.05 0.625
0.05 0.05 0.625
0.075 0.05 0.625
0.1 0.05 0.625
0 0.075 0.625
0.025 0.075 0.625
0.05 0.075 0.625
0.075 0.075 0.625
0.1 0.075 0.625
0 0.1 0.625
0.025 0.1 0.625
0.05 0.1 0.625
0.075 0.1 0.625
0.1 0.1 0.625
0 0 0.65
0.025 0 0.65
0.05 0 0.65
0.075 0 0.65
0.1 0 0.65
0 0.025 0.65
0.025 0.025 0.65
0.05 0.025 0.65
0.075 0.025 0.65
0.1 0.025 0.65
0 0.05 0.65
0.025 0.05 0.65
0.05 0.05 0.65
0.075 0.05 0.65
0.1 0.05 0.65
0 0.075 0.65
0.025 0.075 0.65
0.05 0.075 0.65
0.075 0.075 0.65
0.1 0.075 0.65
0 0.1 0.65
0.025 0.1 0.65
0.05 0.1 0.65
0.075 0.1 0.65
0.1 0.1 0.65
0 0 0.675
0.025 0 0.675
0.05 0 0.675
0.075 0 0.675
0.1 0 0.675
[...]
<PointData Vectors="Displacement">
<DataArray type="Float32" Name="Displacement" NumberOfComponents="3" format="ascii">
0 0 0
0 0 0
0 0 0
0 0 0
0 0 0
0 0 0
0 0 0
0 0 0
0 0 0
0 0 0
0 0 0
0 0 0
0 0 0
0 0 0
0 0 0
0 0 0
0 0 0
0 0 0
0 0 0
0 0 0
0 0 0
0 0 0
0 0 0
0 0 0
0 0 0
4.5968e-10 0.00124159 1.36155e-09
1.9516e-10 0.00124159 1.36554e-09
4.1036e-11 0.00124159 1.35107e-09
-1.09459e-10 0.00124159 1.36458e-09
-3.3197e-10 0.00124159 1.35245e-09
4.56436e-10 0.00124159 1.37011e-09
1.96866e-10 0.00124159 1.35852e-09
4.01232e-11 0.00124159 1.36077e-09
-1.07032e-10 0.00124159 1.35693e-09
-3.22246e-10 0.00124159 1.34392e-09
4.68344e-10 0.00124159 1.36477e-09
1.94091e-10 0.00124159 1.36669e-09
4.06084e-11 0.00124159 1.34806e-09
-9.2043e-11 0.00124159 1.35513e-09
-3.56014e-10 0.00124159 1.35371e-09
4.85345e-10 0.00124159 1.37099e-09
2.01296e-10 0.00124159 1.36366e-09
5.69415e-11 0.00124159 1.36732e-09
-1.0199e-10 0.00124159 1.37577e-09
-3.4988e-10 0.00124159 1.36246e-09
4.88499e-10 0.00124159 1.37116e-09
2.10124e-10 0.00124159 1.39848e-09
4.99766e-11 0.00124159 1.3799e-09
-1.18391e-10 0.00124159 1.37887e-09
-3.71339e-10 0.00124159 1.37028e-09
6.07186e-10 0.00248323 2.76244e-09
3.04417e-10 0.00248323 2.76236e-09
6.89718e-11 0.00248323 2.79356e-09
-1.46912e-10 0.00248323 2.77571e-09
-3.48837e-10 0.00248323 2.71979e-09
6.09228e-10 0.00248323 2.75668e-09
3.31295e-10 0.00248323 2.75974e-09
7.76793e-11 0.00248323 2.7753e-09
-1.27514e-10 0.00248323 2.74717e-09
-3.82497e-10 0.00248323 2.77047e-09
5.75564e-10 0.00248323 2.76428e-09
3.32234e-10 0.00248323 2.76608e-09
9.81871e-11 0.00248323 2.72631e-09
-1.36892e-10 0.00248323 2.77181e-09
-3.37601e-10 0.00248323 2.77722e-09
6.34149e-10 0.00248323 2.78506e-09
3.22776e-10 0.00248323 2.78328e-09
1.08665e-10 0.00248323 2.79736e-09
-1.63831e-10 0.00248323 2.78558e-09
-4.1043e-10 0.00248323 2.76695e-09
5.95473e-10 0.00248323 2.78078e-09
3.5164e-10 0.00248323 2.79669e-09
8.4113e-11 0.00248323 2.80346e-09
-1.59781e-10 0.00248323 2.79323e-09
-4.34428e-10 0.00248323 2.78627e-09
6.62715e-10 0.00372498 4.18241e-09
4.07753e-10 0.00372498 4.16157e-09
1.02736e-10 0.00372498 4.22057e-09
-2.01241e-10 0.00372498 4.23033e-09
-2.90147e-10 0.00372498 4.20774e-09
6.41514e-10 0.00372498 4.15826e-09
3.80875e-10 0.00372498 4.17727e-09
1.21444e-10 0.00372498 4.18093e-09
-1.36179e-10 0.00372498 4.23042e-09
-2.78289e-10 0.00372498 4.16789e-09
6.57282e-10 0.00372498 4.16611e-09
3.54341e-10 0.00372498 4.18488e-09
1.23475e-10 0.00372498 4.18013e-09
-9.79842e-11 0.00372498 4.17127e-09
-3.27123e-10 0.00372498 4.16893e-09
6.8834e-10 0.00372498 4.16277e-09
3.92981e-10 0.00372498 4.19217e-09
1.1342e-10 0.00372498 4.19512e-09
-1.28318e-10 0.00372498 4.18517e-09
-3.81545e-10 0.00372498 4.18346e-09
6.65154e-10 0.00372498 4.1521e-09
4.04402e-10 0.00372498 4.19383e-09
1.42778e-10 0.00372498 4.17395e-09
-1.59693e-10 0.00372498 4.19001e-09
-4.7123e-10 0.00372498 4.1646e-09
7.58367e-10 0.00496688 5.59308e-09
4.42069e-10 0.00496688 5.5583e-09
1.7513e-10 0.00496688 5.52922e-09
-1.67396e-10 0.00496688 5.56118e-09
-2.6516e-10 0.00496688 5.60311e-09
6.66782e-10 0.00496688 5.52366e-09
3.85173e-10 0.00496688 5.55878e-09
1.39182e-10 0.00496688 5.57572e-09
-1.37414e-10 0.00496688 5.5715e-09
-2.86124e-10 0.00496688 5.58207e-09
5.54632e-10 0.00496688 5.51886e-09
3.90851e-10 0.00496688 5.55012e-09
1.51316e-10 0.00496688 5.55992e-09
-1.09742e-10 0.00496688 5.58727e-09
-2.56219e-10 0.00496688 5.54655e-09
6.43661e-10 0.00496688 5.52754e-09
3.50457e-10 0.00496688 5.50215e-09
1.729e-10 0.00496688 5.52868e-09
-1.06675e-10 0.00496688 5.55064e-09
-3.18953e-10 0.00496688 5.55605e-09
6.46268e-10 0.00496688 5.51607e-09
3.85556e-10 0.00496688 5.5245e-09
1.29109e-10 0.00496688 5.54457e-09
-6.96307e-11 0.00496688 5.55886e-09
-3.97805e-10 0.00496688 5.51302e-09
6.37296e-10 0.00620899 6.76643e-09
2.8961e-10 0.00620899 6.85607e-09
1.1961e-10 0.00620899 6.81526e-09
-6.28725e-11 0.00620899 6.8518e-09
-1.70987e-10 0.00620898 6.89989e-09
6.62486e-10 0.00620899 6.87516e-09
3.48196e-10 0.00620899 6.8251e-09
1.26903e-10 0.00620899 6.86508e-09
-1.40709e-10 0.00620898 6.91573e-09
-3.26465e-10 0.00620899 6.89757e-09
5.7049e-10 0.00620899 6.843e-09
3.42596e-10 0.00620899 6.85702e-09
1.55893e-10 0.00620899 6.92875e-09
-1.13155e-10 0.00620898 6.95959e-09
-3.05504e-10 0.00620898 6.98832e-09
5.34345e-10 0.00620898 6.83661e-09
3.66228e-10 0.00620899 6.88048e-09
1.79945e-10 0.00620898 6.94081e-09
-1.24285e-10 0.00620898 6.95909e-09
-2.63586e-10 0.00620898 6.88942e-09
7.3896e-10 0.00620898 6.8875e-09
3.97656e-10 0.00620898 6.91152e-09
1.84063e-10 0.00620898 6.95849e-09
-8.02303e-11 0.00620898 6.88568e-09
-3.06855e-10 0.00620898 6.9236e-09
4.37758e-10 0.00745135 8.01933e-09
2.2887e-10 0.00745135 8.00972e-09
1.11647e-10 0.00745135 8.19494e-09
-1.19469e-10 0.00745134 8.12027e-09
-1.49918e-10 0.00745135 8.21845e-09
5.13571e-10 0.00745135 8.0687e-09
2.59198e-10 0.00745135 8.05718e-09
1.36391e-10 0.00745134 8.08678e-09
-8.17064e-11 0.00745134 8.22294e-09
-2.91988e-10 0.00745134 8.19587e-09
4.35566e-10 0.00745135 8.16198e-09
3.10155e-10 0.00745134 8.14571e-09
1.23948e-10 0.00745134 8.11546e-09
-9.20908e-11 0.00745134 8.20678e-09
-4.30678e-10 0.00745134 8.14907e-09
5.21997e-10 0.00745134 8.1436e-09
3.49503e-10 0.00745134 8.15593e-09
1.32009e-10 0.00745134 8.20844e-09
-1.0163e-10 0.00745134 8.12696e-09
-3.52221e-10 0.00745134 8.19361e-09
4.86105e-10 0.00745134 8.22337e-09
3.82554e-10 0.00745134 8.13102e-09
1.13808e-10 0.00745134 8.16714e-09
-1.63489e-10 0.00745134 8.30558e-09
-1.38568e-10 0.00745134 8.09577e-09
2.03963e-10 0.00869401 9.3833e-09
1.84688e-10 0.00869401 9.27586e-09
1.33245e-10 0.008694 9.51904e-09
-5.87583e-11 0.008694 9.17102e-09
-4.28058e-10 0.008694 9.4338e-09
3.67704e-10 0.00869401 9.31068e-09
1.96264e-10 0.008694 9.33005e-09
2.26561e-11 0.008694 9.34787e-09
-1.01684e-10 0.008694 9.38083e-09
-4.11515e-10 0.008694 9.31859e-09
4.69252e-10 0.008694 9.35607e-09
1.68517e-10 0.008694 9.3318e-09
2.41844e-11 0.008694 9.39382e-09
-1.39642e-10 0.008694 9.31028e-09
-3.133e-10 0.008694 9.34035e-09
4.08648e-10 0.008694 9.42468e-09
2.65546e-10 0.008694 9.35624e-09
4.94538e-12 0.008694 9.27096e-09
-1.92466e-10 0.008694 9.35287e-09
-3.82427e-10 0.008694 9.33329e-09
3.43097e-10 0.008694 9.52791e-09
3.10691e-10 0.008694 9.40318e-09
6.41847e-11 0.008694 9.34883e-09
-2.47014e-10 0.008694 9.44296e-09
-3.88338e-10 0.008694 9.37773e-09
3.90947e-10 0.00993701 1.04248e-08
8.47877e-11 0.00993701 1.06202e-08
-4.74711e-11 0.00993701 1.04331e-08
-3.56678e-10 0.00993701 1.06046e-08
-2.40714e-11 0.00993701 1.03419e-08
2.45699e-10 0.00993701 1.0546e-08
4.42342e-11 0.00993701 1.04987e-08
-6.31939e-11 0.00993701 1.05174e-08
-2.94053e-10 0.00993701 1.04823e-08
-2.24126e-10 0.00993701 1.04238e-08
1.90003e-10 0.00993701 1.04156e-08
5.35489e-11 0.00993701 1.04941e-08
-6.29445e-11 0.00993701 1.04217e-08
-3.67862e-10 0.00993701 1.05183e-08
-2.26543e-10 0.00993701 1.05023e-08
2.1325e-10 0.00993701 1.05753e-08
6.35703e-11 0.00993701 1.05376e-08
-1.14126e-10 0.00993701 1.05111e-08
-3.14884e-10 0.00993701 1.05515e-08
-3.35136e-10 0.00993701 1.05294e-08
3.40815e-10 0.00993701 1.05198e-08
-1.96869e-11 0.00993701 1.05075e-08
-1.34185e-10 0.00993701 1.04328e-08
-3.02131e-10 0.00993701 1.05615e-08
-5.04464e-10 0.00993701 1.05936e-08
1.18947e-10 0.0111804 1.14191e-08
-5.55493e-11 0.0111804 1.14645e-08
-3.01557e-10 0.0111804 1.13979e-08
-4.08784e-10 0.0111804 1.14929e-08
-5.95197e-10 0.0111804 1.13865e-08
2.34816e-10 0.0111804 1.14659e-08
-1.28055e-10 0.0111804 1.14712e-08
-3.42452e-10 0.0111804 1.14895e-08
-4.69937e-10 0.0111804 1.1418e-08
-3.87861e-10 0.0111804 1.14452e-08
1.33319e-10 0.0111804 1.14841e-08
-1.14283e-10 0.0111804 1.15297e-08
-3.03644e-10 0.0111804 1.15283e-08
-3.97487e-10 0.0111804 1.15483e-08
-5.10852e-10 0.0111804 1.17231e-08
1.91313e-10 0.0111804 1.13472e-08
-9.59585e-11 0.0111804 1.15403e-08
-2.58261e-10 0.0111804 1.16253e-08
-3.44267e-10 0.0111804 1.16987e-08
-5.74991e-10 0.0111804 1.16849e-08
4.72684e-11 0.0111804 1.12978e-08
-2.2327e-11 0.0111804 1.14957e-08
-2.98452e-10 0.0111804 1.16934e-08
-4.84198e-10 0.0111804 1.17569e-08
-5.82293e-10 0.0111804 1.18323e-08
-2.07061e-10 0.0124242 1.24276e-08
-3.47184e-10 0.0124242 1.24511e-08
-5.07178e-10 0.0124242 1.21645e-08
-7.17884e-10 0.0124242 1.22288e-08
-7.07135e-10 0.0124242 1.25626e-08
-2.32932e-10 0.0124242 1.22909e-08
-3.74342e-10 0.0124242 1.2296e-08
-4.83544e-10 0.0124242 1.22849e-08
-6.47487e-10 0.0124242 1.24196e-08
-6.38865e-10 0.0124242 1.24207e-08
-2.81537e-10 0.0124242 1.23502e-08
-3.58256e-10 0.0124242 1.24512e-08
-5.73317e-10 0.0124242 1.254e-08
-6.68369e-10 0.0124242 1.2643e-08
-4.76916e-10 0.0124242 1.24862e-08
-6.22004e-11 0.0124242 1.23777e-08
-3.95643e-10 0.0124242 1.23202e-08
-5.0913e-10 0.0124242 1.25773e-08
-6.10989e-10 0.0124242 1.2552e-08
-6.74422e-10 0.0124242 1.26583e-08
-1.03016e-10 0.0124242 1.22413e-08
-3.25446e-10 0.0124242 1.24122e-08
-3.58949e-10 0.0124242 1.25246e-08
-6.66645e-10 0.0124242 1.27875e-08
-9.93746e-10 0.0124242 1.252e-08
-5.16631e-10 0.0136685 1.32108e-08
-7.78162e-10 0.0136685 1.30542e-08
-7.81816e-10 0.0136685 1.3067e-08
-9.61393e-10 0.0136685 1.32279e-08
-9.99e-10 0.0136685 1.34595e-08
-7.78102e-10 0.0136685 1.32623e-08
-6.95455e-10 0.0136685 1.31484e-08
-7.98076e-10 0.0136685 1.31094e-08
-9.28618e-10 0.0136685 1.32504e-08
-1.00596e-09 0.0136685 1.32937e-08
-6.05811e-10 0.0136685 1.31212e-08
-6.23003e-10 0.0136685 1.31753e-08
-8.34874e-10 0.0136685 1.32834e-08
-1.03997e-09 0.0136685 1.32915e-08
-8.46836e-10 0.0136685 1.34316e-08
-5.24263e-10 0.0136685 1.32541e-08
-6.73821e-10 0.0136685 1.32402e-08
-9.19721e-10 0.0136685 1.33343e-08
-8.87483e-10 0.0136685 1.35294e-08
-8.52131e-10 0.0136685 1.33519e-08
-5.0144e-10 0.0136685 1.3097e-08
-7.61116e-10 0.0136685 1.32526e-08
-7.29795e-10 0.0136685 1.32003e-08
-6.86131e-10 0.0136685 1.3369e-08
-1.13549e-09 0.0136685 1.35728e-08
-9.36488e-10 0.0149133 1.38342e-08
-1.0899e-09 0.0149133 1.39281e-08
-1.18045e-09 0.0149133 1.41408e-08
-1.28568e-09 0.0149133 1.3742e-08
-1.71885e-09 0.0149133 1.37416e-08
-1.01638e-09 0.0149133 1.3947e-08
-1.1091e-09 0.0149133 1.39443e-08
-1.19969e-09 0.0149133 1.38319e-08
-1.37739e-09 0.0149133 1.3914e-08
-1.65525e-09 0.0149133 1.39885e-08
-1.04631e-09 0.0149133 1.39635e-08
-1.11943e-09 0.0149133 1.38504e-08
-1.0983e-09 0.0149133 1.38319e-08
-1.52029e-09 0.0149133 1.40165e-08
-1.32261e-09 0.0149133 1.39991e-08
-9.59617e-10 0.0149133 1.38848e-08
-1.17374e-09 0.0149133 1.39241e-08
-1.05323e-09 0.0149133 1.39962e-08
-1.29733e-09 0.0149133 1.40223e-08
-1.51468e-09 0.0149133 1.405e-08
-9.1434e-10 0.0149133 1.39607e-08
-1.1275e-09 0.0149133 1.40268e-08
-9.64834e-10 0.0149133 1.41081e-08
-1.15127e-09 0.0149133 1.41137e-08
-1.49335e-09 0.0149133 1.41358e-08
-1.74099e-09 0.0161586 1.44398e-08
-1.40063e-09 0.0161586 1.45799e-08
-1.80889e-09 0.0161586 1.42637e-08
-1.97708e-09 0.0161586 1.427e-08
-1.64103e-09 0.0161586 1.43168e-08
-1.3652e-09 0.0161586 1.44688e-08
-1.64456e-09 0.0161586 1.44047e-08
-1.63921e-09 0.0161586 1.43701e-08
-1.70064e-09 0.0161586 1.43631e-08
-1.89482e-09 0.0161586 1.43748e-08
-1.61943e-09 0.0161586 1.43298e-08
-1.52016e-09 0.0161586 1.44649e-08
-1.45834e-09 0.0161586 1.4463e-08
-1.65078e-09 0.0161586 1.44827e-08
-2.11925e-09 0.0161586 1.44562e-08
-1.56924e-09 0.0161586 1.45624e-08
-1.45615e-09 0.0161586 1.44595e-08
-1.41697e-09 0.0161586 1.45312e-08
-1.70406e-09 0.0161586 1.44855e-08
-1.66787e-09 0.0161586 1.44523e-08
-1.67774e-09 0.0161586 1.44787e-08
-1.4412e-09 0.0161586 1.46387e-08
-1.47045e-09 0.0161586 1.47666e-08
-1.57278e-09 0.0161586 1.45795e-08
-1.64141e-09 0.0161586 1.43721e-08
-1.39219e-09 0.0174045 1.49142e-08
-1.98426e-09 0.0174045 1.48388e-08
-2.07159e-09 0.0174045 1.47708e-08
-2.12036e-09 0.0174045 1.45773e-08
-2.69715e-09 0.0174045 1.47672e-08
-1.785e-09 0.0174045 1.48835e-08
-1.96953e-09 0.0174045 1.47839e-08
-2.13035e-09 0.0174045 1.47342e-08
-2.22888e-09 0.0174045 1.47167e-08
-2.29287e-09 0.0174045 1.46693e-08
-2.07097e-09 0.0174045 1.49577e-08
-1.9148e-09 0.0174045 1.49219e-08
-1.88113e-09 0.0174045 1.48971e-08
-2.12987e-09 0.0174045 1.46883e-08
-2.2687e-09 0.0174045 1.46089e-08
-2.11598e-09 0.0174045 1.49859e-08
-1.87414e-09 0.0174045 1.50836e-08
-1.6937e-09 0.0174045 1.4835e-08
-2.19681e-09 0.0174045 1.46962e-08
-2.26635e-09 0.0174045 1.48066e-08
-1.98973e-09 0.0174045 1.52489e-08
-1.77913e-09 0.0174045 1.48337e-08
-1.8653e-09 0.0174045 1.50019e-08
-1.92588e-09 0.0174045 1.49612e-08
-2.50678e-09 0.0174045 1.51139e-08
-2.52611e-09 0.018651 1.51411e-08
-2.38735e-09 0.018651 1.49898e-08
-2.67424e-09 0.018651 1.49247e-08
-2.6384e-09 0.018651 1.4724e-08
-2.69493e-09 0.018651 1.48144e-08
-2.25907e-09 0.018651 1.5024e-08
-2.40841e-09 0.018651 1.51958e-08
-2.44711e-09 0.018651 1.48137e-08
-2.62416e-09 0.018651 1.4785e-08
-2.5719e-09 0.018651 1.47394e-08
-2.19872e-09 0.018651 1.52578e-08
-2.35903e-09 0.018651 1.50811e-08
-2.38718e-09 0.018651 1.49234e-08
-2.63447e-09 0.018651 1.48857e-08
-2.47161e-09 0.018651 1.46843e-08
-2.22195e-09 0.018651 1.51153e-08
-2.3913e-09 0.018651 1.51256e-08
-2.32256e-09 0.018651 1.50126e-08
-2.42535e-09 0.018651 1.48312e-08
-2.69378e-09 0.018651 1.49227e-08
-2.10846e-09 0.018651 1.51165e-08
-2.36005e-09 0.018651 1.5165e-08
-2.15603e-09 0.018651 1.51191e-08
-2.75298e-09 0.018651 1.48334e-08
-2.39322e-09 0.018651 1.5143e-08
-3.04748e-09 0.0198981 1.53174e-08
-2.70936e-09 0.0198981 1.5496e-08
-2.75691e-09 0.0198981 1.50688e-08
-3.11696e-09 0.0198981 1.50068e-08
-2.91693e-09 0.0198981 1.50185e-08
-2.76288e-09 0.0198981 1.52148e-08
-2.67656e-09 0.0198981 1.51636e-08
-2.67429e-09 0.0198981 1.5089e-08
-2.95956e-09 0.0198981 1.50355e-08
-3.00107e-09 0.0198981 1.49393e-08
-2.68467e-09 0.0198981 1.50201e-08
-2.78187e-09 0.0198981 1.50807e-08
-2.77611e-09 0.0198981 1.51149e-08
-3.00799e-09 0.0198981 1.49214e-08
-3.01282e-09 0.0198981 1.49538e-08
-2.45613e-09 0.0198981 1.49708e-08
-2.79424e-09 0.0198981 1.49868e-08
-2.69566e-09 0.0198981 1.51097e-08
-3.06164e-09 0.0198981 1.51299e-08
-2.60989e-09 0.0198981 1.49989e-08
-2.66023e-09 0.0198981 1.50785e-08
-2.65493e-09 0.0198981 1.50694e-08
-2.95893e-09 0.0198981 1.48471e-08
-2.82335e-09 0.0198981 1.5467e-08
-3.14816e-09 0.0198981 1.49241e-08
-3.16513e-09 0.0211458 1.5503e-08
-3.22818e-09 0.0211458 1.54527e-08
-2.90195e-09 0.0211458 1.53565e-08
-3.67049e-09 0.0211458 1.4897e-08
-3.6039e-09 0.0211458 1.50087e-08
-2.72023e-09 0.0211458 1.53399e-08
-3.1332e-09 0.0211458 1.52084e-08
-3.14154e-09 0.0211458 1.52528e-08
-3.54012e-09 0.0211458 1.51079e-08
-3.5512e-09 0.0211458 1.49381e-08
-3.09718e-09 0.0211458 1.49639e-08
-3.06337e-09 0.0211458 1.49416e-08
-3.19003e-09 0.0211458 1.50575e-08
-3.33051e-09 0.0211458 1.50914e-08
-3.16326e-09 0.0211458 1.51708e-08
-2.77744e-09 0.0211458 1.47892e-08
-3.16911e-09 0.0211458 1.4691e-08
-3.24984e-09 0.0211458 1.49359e-08
-3.21633e-09 0.0211458 1.49965e-08
-3.50813e-09 0.0211458 1.51693e-08
-2.51357e-09 0.0211458 1.4904e-08
-3.16937e-09 0.0211458 1.47533e-08
-2.9811e-09 0.0211458 1.48531e-08
-3.25746e-09 0.0211458 1.49236e-08
-3.67387e-09 0.0211458 1.52104e-08
-3.62948e-09 0.0223942 1.51099e-08
-3.57128e-09 0.0223942 1.51871e-08
-3.44685e-09 0.0223942 1.48273e-08
-3.91695e-09 0.0223942 1.48513e-08
-3.54283e-09 0.0223942 1.48957e-08
-3.39853e-09 0.0223942 1.49517e-08
-3.63588e-09 0.0223942 1.48003e-08
-3.55587e-09 0.0223942 1.50728e-08
-3.83133e-09 0.0223942 1.48149e-08
-3.7409e-09 0.0223942 1.47511e-08
-3.46981e-09 0.0223942 1.48522e-08
-3.67053e-09 0.0223942 1.48437e-08
-3.52501e-09 0.0223942 1.46704e-08
-3.64912e-09 0.0223942 1.49808e-08
-3.59494e-09 0.0223942 1.50106e-08
-3.48873e-09 0.0223942 1.47591e-08
-3.67989e-09 0.0223942 1.45464e-08
-3.50885e-09 0.0223942 1.46769e-08
-3.44858e-09 0.0223942 1.4829e-08
-3.56809e-09 0.0223942 1.51645e-08
-3.54571e-09 0.0223942 1.4565e-08
-3.68959e-09 0.0223942 1.45268e-08
-3.45974e-09 0.0223942 1.46009e-08
-3.50225e-09 0.0223942 1.492e-08
-3.58881e-09 0.0223942 1.46633e-08
-3.89995e-09 0.0236432 1.45093e-08
-4.04043e-09 0.0236432 1.44473e-08
-4.25236e-09 0.0236432 1.42123e-08
-3.90231e-09 0.0236432 1.45833e-08
-3.72839e-09 0.0236432 1.47596e-08
-4.25156e-09 0.0236432 1.46223e-08
-3.96467e-09 0.0236432 1.46181e-08
-3.83437e-09 0.0236432 1.4466e-08
-4.11108e-09 0.0236432 1.45507e-08
-3.7499e-09 0.0236432 1.43655e-08
-4.21492e-09 0.0236432 1.46191e-08
-3.8763e-09 0.0236432 1.45186e-08
-3.84418e-09 0.0236432 1.45495e-08
-3.92668e-09 0.0236432 1.45369e-08
-3.77057e-09 0.0236432 1.45059e-08
-4.30073e-09 0.0236432 1.45978e-08
-3.99495e-09 0.0236432 1.43095e-08
-3.80266e-09 0.0236432 1.46795e-08
-3.72556e-09 0.0236432 1.45594e-08
-3.75296e-09 0.0236432 1.47493e-08
-4.31151e-09 0.0236432 1.44979e-08
-3.98447e-09 0.0236432 1.41951e-08
-3.70894e-09 0.0236432 1.44269e-08
-3.67429e-09 0.0236432 1.47716e-08
-3.47471e-09 0.0236432 1.45503e-08
-4.58741e-09 0.0248929 1.45556e-08
-4.48671e-09 0.0248929 1.42625e-08
-3.96852e-09 0.0248929 1.44777e-08
-4.26495e-09 0.0248929 1.43867e-08
-4.50835e-09 0.0248929 1.44166e-08
-4.35758e-09 0.0248929 1.43553e-08
-4.37494e-09 0.0248929 1.44902e-08
-4.31765e-09 0.0248929 1.4098e-08
-4.33254e-09 0.0248929 1.41617e-08
-4.032e-09 0.0248929 1.42036e-08
-4.5388e-09 0.0248929 1.42516e-08
-4.38419e-09 0.0248929 1.43902e-08
-4.2438e-09 0.0248929 1.44985e-08
-4.14893e-09 0.0248929 1.39944e-08
-3.93922e-09 0.0248929 1.38927e-08
-4.94816e-09 0.0248929 1.45066e-08
-4.51217e-09 0.0248929 1.42851e-08
-4.22201e-09 0.0248929 1.4453e-08
-3.9895e-09 0.0248929 1.44887e-08
-3.80714e-09 0.0248929 1.433e-08
-4.76345e-09 0.0248929 1.40148e-08
-4.62536e-09 0.0248929 1.44635e-08
-4.10875e-09 0.0248929 1.41921e-08
-4.16027e-09 0.0248929 1.43163e-08
-3.44821e-09 0.0248929 1.43521e-08
-4.51202e-09 0.0261432 1.41769e-08
-4.66532e-09 0.0261432 1.41747e-08
-4.43187e-09 0.0261432 1.42878e-08
-4.84192e-09 0.0261432 1.35598e-08
-4.84362e-09 0.0261432 1.44297e-08
-4.91181e-09 0.0261432 1.42776e-08
-4.65334e-09 0.0261432 1.39728e-08
-4.56953e-09 0.0261432 1.41233e-08
-4.46256e-09 0.0261432 1.41157e-08
-4.33449e-09 0.0261432 1.41114e-08
-4.78112e-09 0.0261432 1.41411e-08
-4.8473e-09 0.0261432 1.4233e-08
-4.52561e-09 0.0261432 1.39297e-08
-4.55621e-09 0.0261432 1.4246e-08
-3.41418e-09 0.0261432 1.40809e-08
-5.53666e-09 0.0261432 1.4279e-08
-4.79598e-09 0.0261432 1.43268e-08
-4.52394e-09 0.0261432 1.42993e-08
-4.32211e-09 0.0261432 1.40048e-08
-3.68181e-09 0.0261432 1.41731e-08
-5.38879e-09 0.0261432 1.4334e-08
-5.13758e-09 0.0261432 1.43009e-08
-4.52842e-09 0.0261432 1.40945e-08
-3.88036e-09 0.0261432 1.43373e-08
-3.91057e-09 0.0261432 1.45405e-08
-4.51636e-09 0.0273942 1.41234e-08
-4.90014e-09 0.0273942 1.382e-08
-5.05875e-09 0.0273942 1.34051e-08
-4.80555e-09 0.0273942 1.41741e-08
-3.92429e-09 0.0273942 1.37274e-08
-5.44819e-09 0.0273942 1.4043e-08
-5.00577e-09 0.0273942 1.38776e-08
-4.89026e-09 0.0273942 1.3787e-08
-4.53481e-09 0.0273942 1.39777e-08
-4.61636e-09 0.0273942 1.40527e-08
-5.6051e-09 0.0273942 1.39697e-08
-5.05736e-09 0.0273942 1.40121e-08
-4.82796e-09 0.0273942 1.40269e-08
-4.61846e-09 0.0273942 1.39177e-08
-3.88359e-09 0.0273942 1.44168e-08
-5.60032e-09 0.0273942 1.39289e-08
-5.10767e-09 0.0273942 1.41298e-08
-4.81668e-09 0.0273942 1.41849e-08
-4.61822e-09 0.0273942 1.42047e-08
-4.07856e-09 0.0273942 1.43821e-08
-5.17302e-09 0.0273942 1.42383e-08
-5.2054e-09 0.0273942 1.39271e-08
-4.7555e-09 0.0273942 1.43251e-08
-4.39681e-09 0.0273942 1.43366e-08
-4.41983e-09 0.0273942 1.42556e-08
-5.79769e-09 0.0286459 1.35048e-08
-5.28333e-09 0.0286459 1.35494e-08
-5.40714e-09 0.0286459 1.36391e-08
-4.86664e-09 0.0286459 1.36002e-08
-4.53423e-09 0.0286459 1.36142e-08
-5.59058e-09 0.0286459 1.36312e-08
-5.45845e-09 0.0286459 1.38681e-08
-5.02023e-09 0.0286459 1.37813e-08
-5.00196e-09 0.0286459 1.38221e-08
-4.28927e-09 0.0286459 1.38248e-08
-5.75343e-09 0.0286459 1.40435e-08
-5.41464e-09 0.0286459 1.38846e-08
-5.00071e-09 0.0286459 1.40361e-08
-5.00963e-09 0.0286459 1.40718e-08
-4.27776e-09 0.0286459 1.40874e-08
-5.41991e-09 0.0286459 1.39213e-08
-5.40354e-09 0.0286459 1.38476e-08