<?xml version="1.0"?>
<VTKFile type="UnstructuredGrid" version="0.1" byte_order="LittleEndian">
<UnstructuredGrid>
<Piece NumberOfPoints="1025" NumberOfCells="640">
<Points>
<DataArray type="Float32" NumberOfComponents="3" format="ascii">
0 0 0
0.025 0 0
0.05 0 0
0.075 0 0
0.1 0 0
0 0.025 0
0.025 0.025 0
0.05 0.025 0
0.075 0.025 0
0.1 0.025 0
0 0.05 0
0.025 0.05 0
0.05 0.05 0
0.075 0.05 0
0.1 0.05 0
0 0.075 0
0.025 0.075 0
0.05 0.075 0
0.075 0.075 0
0.1 0.075 0
0 0.1 0
0.025 0.1 0
0.05 0.1 0
0.075 0.1 0
0.1 0.1 0
0 0 0.025
0.025 0 0.025
0.05 0 0.025
0.075 0 0.025
0.1 0 0.025
0 0.025 0.025
0.025 0.025 0.025
0.05 0.025 0.025
0.075 0.025 0.025
0.1 0.025 0.025
0 0.05 0.025
0.025 0.05 0.025
0.05 0.05 0.025
0.075 0.05 0.025
0.1 0.05 0.025
0 0.075 0.025
0.025 0.075 0.025
0.05 0.075 0.025
0.075 0.075 0.025
0.1 0.075 0.025
0 0.1 0.025
0.025 0.1 0.025
0.05 0.1 0.025
0.075 0.1 0.025
0.1 0.1 0.025
0 0 0.05
0.025 0 0.05
0.05 0 0.05
0.075 0 0.05
0.1 0 0.05
0 0.025 0.05
0.025 0.025 0.05
0.05 0.025 0.05
0.075 0.025 0.05
0.1 0.025 0.05
0 0.05 0.05
0.025 0.05 0.05
0.05 0.05 0.05
0.075 0.05 0.05
0.1 0.05 0.05
0 0.075 0.05
0.025 0.075 0.05
0.05 0.075 0.05
0.075 0.075 0.05
0.1 0.075 0.05
0 0.1 0.05
0.025 0.1 0.05
0.05 0.1 0.05
0.075 0.1 0.05
0.1 0.1 0.05
0 0 0.075
0.025 0 0.075
0.05 0 0.075
0.075 0 0.075
0.1 0 0.075
0 0.025 0.075
0.025 0.025 0.075
0.05 0.025 0.075
0.075 0.025 0.075
0.1 0.025 0.075
0 0.05 0.075
0.025 0.05 0.075
0.05 0.05 0.075
0.075 0.05 0.075
0.1 0.05 0.075
0 0.075 0.075
0.025 0.075 0.075
0.05 0.075 0.075
0.075 0.075 0.075
0.1 0.075 0.075
0 0.1 0.075
0.025 0.1 0.075
0.05 0.1 0.075
0.075 0.1 0.075
0.1 0.1 0.075
0 0 0.1
0.025 0 0.1
0.05 0 0.1
0.075 0 0.1
0.1 0 0.1
0 0.025 0.1
0.025 0.025 0.1
0.05 0.025 0.1
0.075 0.025 0.1
0.1 0.025 0.1
0 0.05 0.1
0.025 0.05 0.1
0.05 0.05 0.1
0.075 0.05 0.1
0.1 0.05 0.1
0 0.075 0.1
0.025 0.075 0.1
0.05 0.075 0.1
0.075 0.075 0.1
0.1 0.075 0.1
0 0.1 0.1
0.025 0.1 0.1
0.05 0.1 0.1
0.075 0.1 0.1
0.1 0.1 0.1
0 0 0.125
0.025 0 0.125
0.05 0 0.125
0.075 0 0.125
0.1 0 0.125
0 0.025 0.125
0.025 0.025 0.125
0.05 0.025 0.125
0.075 0.025 0.125
0.1 0.025 0.125
0 0.05 0.125
0.025 0.05 0.125
0.05 0.05 0.125
0.075 0.05 0.125
0.1 0.05 0.125
0 0.075 0.125
0.025 0.075 0.125
0.05 0.075 0.125
0.075 0.075 0.125
0.1 0.075 0.125
0 0.1 0.125
0.025 0.1 0.125
0.05 0.1 0.125
0.075 0.1 0.125
0.1 0.1 0.125
0 0 0.15
0.025 0 0.15
0.05 0 0.15
0.075 0 0.15
0.1 0 0.15
0 0.025 0.15
0.025 0.025 0.15
0.05 0.025 0.15
0.075 0.025 0.15
0.1 0.025 0.15
0 0.05 0.15
0.025 0.05 0.15
0.05 0.05 0.15
0.075 0.05 0.15
0.1 0.05 0.15
0 0.075 0.15
0.025 0.075 0.15
0.05 0.075 0.15
0.075 0.075 0.15
0.1 0.075 0.15
0 0.1 0.15
0.025 0.1 0.15
0.05 0.1 0.15
0.075 0.1 0.15
0.1 0.1 0.15
0 0 0.175
0.025 0 0.175
0.05 0 0.175
0.075 0 0.175
0.1 0 0.175
0 0.025 0.175
0.025 0.025 0.175
0.05 0.025 0.175
0.075 0.025 0.175
0.1 0.025 0.175
0 0.05 0.175
0.025 0.05 0.175
0.05 0.05 0.175
0.075 0.05 0.175
0.1 0.05 0.175
0 0.075 0.175
0.025 0.075 0.175
0.05 0.075 0.175
0.075 0.075 0.175
0.1 0.075 0.175
0 0.1 0.175
0.025 0.1 0.175
0.05 0.1 0.175
0.075 0.1 0.175
0.1 0.1 0.175
0 0 0.2
0.025 0 0.2
0.05 0 0.2
0.075 0 0.2
0.1 0 0.2
0 0.025 0.2
0.025 0.025 0.2
0.05 0.025 0.2
0.075 0.025 0.2
0.1 0.025 0.2
0 0.05 0.2
0.025 0.05 0.2
0.05 0.05 0.2
0.075 0.05 0.2
0.1 0.05 0.2
0 0.075 0.2
0.025 0.075 0.2
0.05 0.075 0.2
0.075 0.075 0.2
0.1 0.075 0.2
0 0.1 0.2
0.025 0.1 0.2
0.05 0.1 0.2
0.075 0.1 0.2
0.1 0.1 0.2
0 0 0.225
0.025 0 0.225
0.05 0 0.225
0.075 0 0.225
0.1 0 0.225
0 0.025 0.225
0.025 0.025 0.225
0.05 0.025 0.225
0.075 0.025 0.225
0.1 0.025 0.225
0 0.05 0.225
0.025 0.05 0.225
0.05 0.05 0.225
0.075 0.05 0.225
0.1 0.05 0.225
0 0.075 0.225
0.025 0.075 0.225
0.05 0.075 0.225
0.075 0.075 0.225
0.1 0.075 0.225
0 0.1 0.225
0.025 0.1 0.225
0.05 0.1 0.225
0.075 0.1 0.225
0.1 0.1 0.225
0 0 0.25
0.025 0 0.25
0.05 0 0.25
0.075 0 0.25
0.1 0 0.25
0 0.025 0.25
0.025 0.025 0.25
0.05 0.025 0.25
0.075 0.025 0.25
0.1 0.025 0.25
0 0.05 0.25
0.025 0.05 0.25
0.05 0.05 0.25
0.075 0.05 0.25
0.1 0.05 0.25
0 0.075 0.25
0.025 0.075 0.25
0.05 0.075 0.25
0.075 0.075 0.25
0.1 0.075 0.25
0 0.1 0.25
0.025 0.1 0.25
0.05 0.1 0.25
0.075 0.1 0.25
0.1 0.1 0.25
0 0 0.275
0.025 0 0.275
0.05 0 0.275
0.075 0 0.275
0.1 0 0.275
0 0.025 0.275
0.025 0.025 0.275
0.05 0.025 0.275
0.075 0.025 0.275
0.1 0.025 0.275
0 0.05 0.275
0.025 0.05 0.275
0.05 0.05 0.275
0.075 0.05 0.275
0.1 0.05 0.275
0 0.075 0.275
0.025 0.075 0.275
0.05 0.075 0.275
0.075 0.075 0.275
0.1 0.075 0.275
0 0.1 0.275
0.025 0.1 0.275
0.05 0.1 0.275
0.075 0.1 0.275
0.1 0.1 0.275
0 0 0.3
0.025 0 0.3
0.05 0 0.3
0.075 0 0.3
0.1 0 0.3
0 0.025 0.3
0.025 0.025 0.3
0.05 0.025 0.3
0.075 0.025 0.3
0.1 0.025 0.3
0 0.05 0.3
0.025 0.05 0.3
0.05 0.05 0.3
0.075 0.05 0.3
0.1 0.05 0.3
0 0.075 0.3
0.025 0.075 0.3
0.05 0.075 0.3
0.075 0.075 0.3
0.1 0.075 0.3
0 0.1 0.3
0.025 0.1 0.3
0.05 0.1 0.3
0.075 0.1 0.3
0.1 0.1 0.3
0 0 0.325
0.025 0 0.325
0.05 0 0.325
0.075 0 0.325
0.1 0 0.325
0 0.025 0.325
0.025 0.025 0.325
0.05 0.025 0.325
0.075 0.025 0.325
0.1 0.025 0.325
0 0.05 0.325
0.025 0.05 0.325
0.05 0.05 0.325
0.075 0.05 0.325
0.1 0.05 0.325
0 0.075 0.325
0.025 0.075 0.325
0.05 0.075 0.325
0.075 0.075 0.325
0.1 0.075 0.325
0 0.1 0.325
0.025 0.1 0.325
0.05 0.1 0.325
0.075 0.1 0.325
0.1 0.1 0.325
0 0 0.35
0.025 0 0.35
0.05 0 0.35
0.075 0 0.35
0.1 0 0.35
0 0.025 0.35
0.025 0.025 0.35
0.05 0.025 0.35
0.075 0.025 0.35
0.1 0.025 0.35
0 0.05 0.35
0.025 0.05 0.35
0.05 0.05 0.35
0.075 0.05 0.35
0.1 0.05 0.35
0 0.075 0.35
0.025 0.075 0.35
0.05 0.075 0.35
0.075 0.075 0.35
0.1 0.075 0.35
0 0.1 0.35
0.025 0.1 0.35
0.05 0.1 0.35
0.075 0.1 0.35
0.1 0.1 0.35
0 0 0.375
0.025 0 0.375
0.05 0 0.375
0.075 0 0.375
0.1 0 0.375
0 0.025 0.375
0.025 0.025 0.375
0.05 0.025 0.375
0.075 0.025 0.375
0.1 0.025 0.375
0 0.05 0.375
0.025 0.05 0.375
0.05 0.05 0.375
0.075 0.05 0.375
0.1 0.05 0.375
0 0.075 0.375
0.025 0.075 0.375
0.05 0.075 0.375
0.075 0.075 0.375
0.1 0.075 0.375
0 0.1 0.375
0.025 0.1 0.375
0.05 0.1 0.375
0.075 0.1 0.375
0.1 0.1 0.375
0 0 0.4
0.025 0 0.4
0.05 0 0.4
0.075 0 0.4
0.1 0 0.4
0 0.025 0.4
0.025 0.025 0.4
0.05 0.025 0.4
0.075 0.025 0.4
0.1 0.025 0.4
0 0.05 0.4
0.025 0.05 0.4
0.05 0.05 0.4
0.075 0.05 0.4
0.1 0.05 0.4
0 0.075 0.4
0.025 0.075 0.4
0.05 0.075 0.4
0.075 0.075 0.4
0.1 0.075 0.4
0 0.1 0.4
0.025 0.1 0.4
0.05 0.1 0.4
0.075 0.1 0.4
0.1 0.1 0.4
0 0 0.425
0.025 0 0.425
0.05 0 0.425
0.075 0 0.425
0.1 0 0.425
0 0.025 0.425
0.025 0.025 0.425
0.05 0.025 0.425
0.075 0.025 0.425
0.1 0.025 0.425
0 0.05 0.425
0.025 0.05 0.425
0.05 0.05 0.425
0.075 0.05 0.425
0.1 0.05 0.425
0 0.075 0.425
0.025 0.075 0.425
0.05 0.075 0.425
0.075 0.075 0.425
0.1 0.075 0.425
0 0.1 0.425
0.025 0.1 0.425
0.05 0.1 0.425
0.075 0.1 0.425
0.1 0.1 0.425
0 0 0.45
0.025 0 0.45
0.05 0 0.45
0.075 0 0.45
0.1 0 0.45
0 0.025 0.45
0.025 0.025 0.45
0.05 0.025 0.45
0.075 0.025 0.45
0.1 0.025 0.45
0 0.05 0.45
0.025 0.05 0.45
0.05 0.05 0.45
0.075 0.05 0.45
0.1 0.05 0.45
0 0.075 0.45
0.025 0.075 0.45
0.05 0.075 0.45
0.075 0.075 0.45
0.1 0.075 0.45
0 0.1 0.45
0.025 0.1 0.45
0.05 0.1 0.45
0.075 0.1 0.45
0.1 0.1 0.45
0 0 0.475
0.025 0 0.475
0.05 0 0.475
0.075 0 0.475
0.1 0 0.475
0 0.025 0.475
0.025 0.025 0.475
0.05 0.025 0.475
0.075 0.025 0.475
0.1 0.025 0.475
0 0.05 0.475
0.025 0.05 0.475
0.05 0.05 0.475
0.075 0.05 0.475
0.1 0.05 0.475
0 0.075 0.475
0.025 0.075 0.475
0.05 0.075 0.475
0.075 0.075 0.475
0.1 0.075 0.475
0 0.1 0.475
0.025 0.1 0.475
0.05 0.1 0.475
0.075 0.1 0.475
0.1 0.1 0.475
0 0 0.5
0.025 0 0.5
0.05 0 0.5
0.075 0 0.5
0.1 0 0.5
0 0.025 0.5
0.025 0.025 0.5
0.05 0.025 0.5
0.075 0.025 0.5
0.1 0.025 0.5
0 0.05 0.5
0.025 0.05 0.5
0.05 0.05 0.5
0.075 0.05 0.5
0.1 0.05 0.5
0 0.075 0.5
0.025 0.075 0.5
0.05 0.075 0.5
0.075 0.075 0.5
0.1 0.075 0.5
0 0.1 0.5
0.025 0.1 0.5
0.05 0.1 0.5
0.075 0.1 0.5
0.1 0.1 0.5
0 0 0.525
0.025 0 0.525
0.05 0 0.525
0.075 0 0.525
0.1 0 0.525
0 0.025 0.525
0.025 0.025 0.525
0.05 0.025 0.525
0.075 0.025 0.525
0.1 0.025 0.525
0 0.05 0.525
0.025 0.05 0.525
0.05 0.05 0.525
0.075 0.05 0.525
0.1 0.05 0.525
0 0.075 0.525
0.025 0.075 0.525
0.05 0.075 0.525
0.075 0.075 0.525
0.1 0.075 0.525
0 0.1 0.525
0.025 0.1 0.525
0.05 0.1 0.525
0.075 0.1 0.525
0.1 0.1 0.525
0 0 0.55
0.025 0 0.55
0.05 0 0.55
0.075 0 0.55
0.1 0 0.55
0 0.025 0.55
0.025 0.025 0.55
0.05 0.025 0.55
0.075 0.025 0.55
0.1 0.025 0.55
0 0.05 0.55
0.025 0.05 0.55
0.05 0.05 0.55
0.075 0.05 0.55
0.1 0.05 0.55
0 0.075 0.55
0.025 0.075 0.55
0.05 0.075 0.55
0.075 0.075 0.55
0.1 0.075 0.55
0 0.1 0.55
0.025 0.1 0.55
0.05 0.1 0.55
0.075 0.1 0.55
0.1 0.1 0.55
0 0 0.575
0.025 0 0.575
0.05 0 0.575
0.075 0 0.575
0.1 0 0.575
0 0.025 0.575
0.025 0.025 0.575
0.05 0.025 0.575
0.075 0.025 0.575
0.1 0.025 0.575
0 0.05 0.575
0.025 0.05 0.575
0.05 0.05 0.575
0.075 0.05 0.575
0.1 0.05 0.575
0 0.075 0.575
0.025 0.075 0.575
0.05 0.075 0.575
0.075 0.075 0.575
0.1 0.075 0.575
0 0.1 0.575
0.025 0.1 0.575
0.05 0.1 0.575
0.075 0.1 0.575
0.1 0.1 0.575
0 0 0.6
0.025 0 0.6
0.05 0 0.6
0.075 0 0.6
0.1 0 0.6
0 0.025 0.6
0.025 0.025 0.6
0.05 0.025 0.6
0.075 0.025 0.6
0.1 0.025 0.6
0 0.05 0.6
0.025 0.05 0.6
0.05 0.05 0.6
0.075 0.05 0.6
0.1 0.05 0.6
0 0.075 0.6
0.025 0.075 0.6
0.05 0.075 0.6
0.075 0.075 0.6
0.1 0.075 0.6
0 0.1 0.6
0.025 0.1 0.6
0.05 0.1 0.6
0.075 0.1 0.6
0.1 0.1 0.6
0 0 0.625
0.025 0 0.625
0.05 0 0.625
0.075 0 0.625
0.1 0 0.625
0 0.025 0.625
0.025 0.025 0.625
0.05 0.025 0.625
0.075 0.025 0.625
0.1 0.025 0.625
0 0.05 0.625
0.025 0.05 0.625
0.05 0.05 0.625
0.075 0.05 0.625
0.1 0.05 0.625
0 0.075 0.625
0.025 0.075 0.625
0.05 0.075 0.625
0.075 0.075 0.625
0.1 0.075 0.625
0 0.1 0.625
0.025 0.1 0.625
0.05 0.1 0.625
0.075 0.1 0.625
0.1 0.1 0.625
0 0 0.65
0.025 0 0.65
0.05 0 0.65
0.075 0 0.65
0.1 0 0.65
0 0.025 0.65
0.025 0.025 0.65
0.05 0.025 0.65
0.075 0.025 0.65
0.1 0.025 0.65
0 0.05 0.65
0.025 0.05 0.65
0.05 0.05 0.65
0.075 0.05 0.65
0.1 0.05 0.65
0 0.075 0.65
0.025 0.075 0.65
0.05 0.075 0.65
0.075 0.075 0.65
0.1 0.075 0.65
0 0.1 0.65
0.025 0.1 0.65
0.05 0.1 0.65
0.075 0.1 0.65
0.1 0.1 0.65
0 0 0.675
0.025 0 0.675
0.05 0 0.675
0.075 0 0.675
0.1 0 0.675
[...]
<PointData Vectors="Displacement">
<DataArray type="Float32" Name="Displacement" NumberOfComponents="3" format="ascii">
0 0 0
0 0 0
0 0 0
0 0 0
0 0 0
0 0 0
0 0 0
0 0 0
0 0 0
0 0 0
0 0 0
0 0 0
0 0 0
0 0 0
0 0 0
0 0 0
0 0 0
0 0 0
0 0 0
0 0 0
0 0 0
0 0 0
0 0 0
0 0 0
0 0 0
-5.23279e-10 0.00127587 -6.29652e-10
-4.20483e-10 0.00127587 -6.3601e-10
-3.21356e-10 0.00127587 -6.71741e-10
-2.64302e-10 0.00127587 -6.46204e-10
-1.20775e-10 0.00127587 -6.71994e-10
-5.34263e-10 0.00127587 -6.50691e-10
-4.07596e-10 0.00127587 -6.5142e-10
-3.29281e-10 0.00127587 -6.54606e-10
-2.57497e-10 0.00127587 -6.51675e-10
-1.13448e-10 0.00127587 -6.51572e-10
-5.38301e-10 0.00127587 -6.61062e-10
-4.02795e-10 0.00127587 -6.55459e-10
-3.25593e-10 0.00127587 -6.68841e-10
-2.4043e-10 0.00127587 -6.51614e-10
-1.15665e-10 0.00127587 -6.45629e-10
-4.9017e-10 0.00127587 -6.41499e-10
-3.96893e-10 0.00127587 -6.60494e-10
-3.09022e-10 0.00127587 -6.412e-10
-2.43923e-10 0.00127587 -6.46813e-10
-1.41024e-10 0.00127587 -6.44302e-10
-4.78975e-10 0.00127587 -6.47738e-10
-3.76663e-10 0.00127587 -6.36083e-10
-3.10132e-10 0.00127587 -6.39337e-10
-2.67438e-10 0.00127587 -6.23214e-10
-1.34374e-10 0.00127587 -6.2943e-10
-9.24472e-10 0.00255159 -1.32373e-09
-7.89958e-10 0.00255159 -1.31776e-09
-6.59319e-10 0.00255159 -1.33323e-09
-5.63729e-10 0.00255159 -1.32798e-09
-3.87893e-10 0.00255159 -1.38483e-09
-9.53602e-10 0.00255159 -1.33674e-09
-7.65603e-10 0.00255159 -1.33103e-09
-6.70109e-10 0.00255159 -1.30735e-09
-5.38843e-10 0.00255159 -1.33925e-09
-4.3547e-10 0.00255159 -1.33605e-09
-9.03258e-10 0.00255159 -1.32279e-09
-7.81716e-10 0.00255159 -1.34402e-09
-6.48087e-10 0.00255159 -1.35968e-09
-5.52729e-10 0.00255159 -1.31844e-09
-3.73455e-10 0.00255159 -1.31062e-09
-8.52423e-10 0.00255159 -1.33934e-09
-7.75639e-10 0.00255159 -1.34055e-09
-6.39067e-10 0.00255159 -1.31859e-09
-5.45728e-10 0.00255159 -1.3236e-09
-4.25678e-10 0.00255159 -1.31714e-09
-8.61252e-10 0.00255159 -1.31857e-09
-7.26377e-10 0.00255159 -1.33957e-09
-6.58009e-10 0.00255159 -1.31748e-09
-5.20727e-10 0.00255159 -1.30677e-09
-5.04552e-10 0.00255159 -1.3018e-09
-1.38365e-09 0.00382702 -1.98454e-09
-1.1049e-09 0.00382702 -1.97692e-09
-1.02018e-09 0.00382702 -1.91347e-09
-9.34352e-10 0.00382702 -1.98185e-09
-7.50807e-10 0.00382702 -1.93676e-09
-1.26313e-09 0.00382702 -1.95903e-09
-1.14095e-09 0.00382702 -2.00115e-09
-9.74655e-10 0.00382702 -2.00501e-09
-9.10238e-10 0.00382702 -1.96638e-09
-7.24098e-10 0.00382702 -1.98725e-09
-1.24468e-09 0.00382702 -2.00013e-09
-1.13421e-09 0.00382702 -1.98509e-09
-9.95123e-10 0.00382702 -1.97247e-09
-8.46708e-10 0.00382702 -2.00079e-09
-7.65826e-10 0.00382702 -1.98461e-09
-1.20081e-09 0.00382702 -2.03872e-09
-1.11423e-09 0.00382702 -2.00379e-09
-1.003e-09 0.00382702 -2.00978e-09
-8.72774e-10 0.00382702 -1.98252e-09
-7.61085e-10 0.00382702 -1.98154e-09
-1.22173e-09 0.00382702 -2.07291e-09
-1.10988e-09 0.00382702 -2.03814e-09
-9.85271e-10 0.00382702 -2.00234e-09
-8.81757e-10 0.00382702 -2.01633e-09
-8.0108e-10 0.00382702 -1.99747e-09
-1.63295e-09 0.00510201 -2.60563e-09
-1.47271e-09 0.00510201 -2.56318e-09
-1.34495e-09 0.00510201 -2.69552e-09
-1.28368e-09 0.00510201 -2.59406e-09
-1.03878e-09 0.00510201 -2.58554e-09
-1.6871e-09 0.00510201 -2.65573e-09
-1.50119e-09 0.00510201 -2.63783e-09
-1.34213e-09 0.00510201 -2.63147e-09
-1.26447e-09 0.00510201 -2.64328e-09
-1.12163e-09 0.00510201 -2.58106e-09
-1.72254e-09 0.00510201 -2.6252e-09
-1.48874e-09 0.00510201 -2.65175e-09
-1.31108e-09 0.00510201 -2.67447e-09
-1.2397e-09 0.00510201 -2.62603e-09
-1.07458e-09 0.00510201 -2.67357e-09
-1.56998e-09 0.00510201 -2.72526e-09
-1.48497e-09 0.00510201 -2.69061e-09
-1.36887e-09 0.00510201 -2.66932e-09
-1.21789e-09 0.00510201 -2.65893e-09
-1.0123e-09 0.00510201 -2.6535e-09
-1.58844e-09 0.00510201 -2.73557e-09
-1.43563e-09 0.00510201 -2.70564e-09
-1.36413e-09 0.00510201 -2.64808e-09
-1.20434e-09 0.00510201 -2.58336e-09
-1.14208e-09 0.00510201 -2.63597e-09
-2.17464e-09 0.00637642 -3.23009e-09
-1.85524e-09 0.00637642 -3.22359e-09
-1.77914e-09 0.00637642 -3.27994e-09
-1.65213e-09 0.00637642 -3.26845e-09
-1.62426e-09 0.00637642 -3.24988e-09
-2.01368e-09 0.00637642 -3.23493e-09
-1.89699e-09 0.00637642 -3.25728e-09
-1.69932e-09 0.00637642 -3.31254e-09
-1.63072e-09 0.00637642 -3.26076e-09
-1.5792e-09 0.00637642 -3.2703e-09
-2.04975e-09 0.00637642 -3.31638e-09
-1.91004e-09 0.00637642 -3.28139e-09
-1.69069e-09 0.00637642 -3.26009e-09
-1.63028e-09 0.00637642 -3.23185e-09
-1.50446e-09 0.00637642 -3.14549e-09
-2.05148e-09 0.00637642 -3.27233e-09
-1.85483e-09 0.00637642 -3.28639e-09
-1.67516e-09 0.00637642 -3.22744e-09
-1.62277e-09 0.00637642 -3.18904e-09
-1.45242e-09 0.00637642 -3.21935e-09
-1.98292e-09 0.00637642 -3.2808e-09
-1.82933e-09 0.00637642 -3.26526e-09
-1.7585e-09 0.00637642 -3.26454e-09
-1.60079e-09 0.00637642 -3.24385e-09
-1.45177e-09 0.00637642 -3.11696e-09
-2.41686e-09 0.00765011 -3.80707e-09
-2.43153e-09 0.00765011 -3.8238e-09
-2.1002e-09 0.00765011 -3.99562e-09
-2.10617e-09 0.00765011 -3.89542e-09
-1.83953e-09 0.00765011 -3.75938e-09
-2.58618e-09 0.00765011 -3.86266e-09
-2.32855e-09 0.00765011 -3.84822e-09
-2.07252e-09 0.00765011 -3.82151e-09
-1.99959e-09 0.00765011 -3.86334e-09
-1.88869e-09 0.00765011 -3.81951e-09
-2.48138e-09 0.00765011 -3.80306e-09
-2.28065e-09 0.00765011 -3.81702e-09
-2.05498e-09 0.00765011 -3.86978e-09
-1.97561e-09 0.00765011 -3.83015e-09
-2.01142e-09 0.00765011 -3.79869e-09
-2.48734e-09 0.00765011 -3.78327e-09
-2.28038e-09 0.00765011 -3.84577e-09
-2.09985e-09 0.00765011 -3.77122e-09
-1.98399e-09 0.00765011 -3.84809e-09
-1.84986e-09 0.00765011 -3.72626e-09
-2.49392e-09 0.00765011 -3.77177e-09
-2.26304e-09 0.00765011 -3.77888e-09
-2.1072e-09 0.00765011 -3.77821e-09
-2.07417e-09 0.00765011 -3.68286e-09
-1.75357e-09 0.00765011 -3.86887e-09
-3.2767e-09 0.00892294 -4.16034e-09
-2.81268e-09 0.00892293 -4.2352e-09
-2.5185e-09 0.00892293 -4.13501e-09
-2.28912e-09 0.00892293 -4.46069e-09
-2.44372e-09 0.00892293 -4.37094e-09
-3.04732e-09 0.00892293 -4.24623e-09
-2.78151e-09 0.00892293 -4.28679e-09
-2.53095e-09 0.00892293 -4.37074e-09
-2.36062e-09 0.00892293 -4.28795e-09
-2.35269e-09 0.00892293 -4.34562e-09
-2.95022e-09 0.00892293 -4.21109e-09
-2.76626e-09 0.00892293 -4.24535e-09
-2.549e-09 0.00892293 -4.25725e-09
-2.41677e-09 0.00892293 -4.37269e-09
-2.24027e-09 0.00892293 -4.34773e-09
-2.95107e-09 0.00892293 -4.22897e-09
-2.72363e-09 0.00892293 -4.31505e-09
-2.56271e-09 0.00892293 -4.3651e-09
-2.41303e-09 0.00892293 -4.29242e-09
-2.25066e-09 0.00892293 -4.33973e-09
-2.83211e-09 0.00892293 -4.29825e-09
-2.7292e-09 0.00892293 -4.27024e-09
-2.49406e-09 0.00892293 -4.2592e-09
-2.38808e-09 0.00892293 -4.16503e-09
-2.24109e-09 0.00892293 -4.22924e-09
-3.32235e-09 0.0101948 -4.63766e-09
-3.34467e-09 0.0101948 -4.6586e-09
-2.87665e-09 0.0101948 -4.75251e-09
-2.88399e-09 0.0101948 -4.71396e-09
-2.41867e-09 0.0101948 -4.76285e-09
-3.5492e-09 0.0101948 -4.65586e-09
-3.19689e-09 0.0101948 -4.579e-09
-2.93818e-09 0.0101948 -4.62035e-09
-2.94422e-09 0.0101948 -4.73861e-09
-2.49072e-09 0.0101948 -4.7214e-09
-3.53675e-09 0.0101948 -4.61128e-09
-3.22164e-09 0.0101948 -4.63108e-09
-2.95608e-09 0.0101948 -4.73884e-09
-2.96923e-09 0.0101948 -4.74089e-09
-2.58803e-09 0.0101948 -4.68472e-09
-3.3243e-09 0.0101948 -4.65971e-09
-3.15659e-09 0.0101948 -4.67583e-09
-3.01729e-09 0.0101948 -4.66698e-09
-2.9561e-09 0.0101948 -4.67879e-09
-2.71693e-09 0.0101948 -4.65414e-09
-3.2585e-09 0.0101948 -4.73237e-09
-3.34007e-09 0.0101948 -4.70147e-09
-2.97826e-09 0.0101948 -4.72719e-09
-2.95676e-09 0.0101948 -4.70102e-09
-2.65219e-09 0.0101948 -4.79318e-09
-3.81032e-09 0.0114655 -5.102e-09
-3.59392e-09 0.0114655 -5.06427e-09
-3.46008e-09 0.0114655 -5.0652e-09
-3.30241e-09 0.0114655 -5.0913e-09
-3.37634e-09 0.0114655 -5.16589e-09
-3.80356e-09 0.0114655 -5.01495e-09
-3.63589e-09 0.0114655 -5.12882e-09
-3.47696e-09 0.0114655 -5.11799e-09
-3.3806e-09 0.0114655 -5.16973e-09
-3.12538e-09 0.0114655 -5.11812e-09
-3.81012e-09 0.0114655 -5.06557e-09
-3.70156e-09 0.0114655 -5.01832e-09
-3.51046e-09 0.0114655 -5.14168e-09
-3.35844e-09 0.0114655 -5.11997e-09
-3.14535e-09 0.0114655 -4.89697e-09
-3.81858e-09 0.0114655 -5.17826e-09
-3.66893e-09 0.0114655 -5.00802e-09
-3.46932e-09 0.0114655 -5.01983e-09
-3.37456e-09 0.0114655 -4.91389e-09
-3.2638e-09 0.0114655 -5.08598e-09
-3.74641e-09 0.0114655 -5.21334e-09
-3.55143e-09 0.0114655 -5.11082e-09
-3.53563e-09 0.0114655 -4.91029e-09
-3.47721e-09 0.0114655 -5.00341e-09
-3.41356e-09 0.0114655 -4.94152e-09
-4.16457e-09 0.0127349 -5.24746e-09
-4.15664e-09 0.0127349 -5.33504e-09
-3.97755e-09 0.0127349 -5.39193e-09
-3.74826e-09 0.0127349 -5.32177e-09
-3.5914e-09 0.0127349 -5.1735e-09
-4.42471e-09 0.0127349 -5.39579e-09
-4.18636e-09 0.0127349 -5.35227e-09
-3.92052e-09 0.0127349 -5.37469e-09
-3.84904e-09 0.0127349 -5.36213e-09
-3.47612e-09 0.0127349 -5.29399e-09
-4.49022e-09 0.0127349 -5.39563e-09
-4.1648e-09 0.0127349 -5.39438e-09
-4.10435e-09 0.0127349 -5.29798e-09
-3.90743e-09 0.0127349 -5.30078e-09
-3.50368e-09 0.0127349 -5.35661e-09
-4.25303e-09 0.0127349 -5.37287e-09
-4.23322e-09 0.0127349 -5.40321e-09
-4.01862e-09 0.0127349 -5.33302e-09
-3.92867e-09 0.0127349 -5.43762e-09
-3.82301e-09 0.0127349 -5.26199e-09
-4.47396e-09 0.0127349 -5.36737e-09
-4.07611e-09 0.0127349 -5.32314e-09
-3.94514e-09 0.0127349 -5.22297e-09
-4.08563e-09 0.0127349 -5.12292e-09
-3.90616e-09 0.0127349 -5.36181e-09
-4.4043e-09 0.014003 -5.68666e-09
-4.60198e-09 0.014003 -5.68761e-09
-4.43708e-09 0.014003 -5.40385e-09
-4.35463e-09 0.014003 -5.10319e-09
-4.38149e-09 0.014003 -5.10186e-09
-4.85398e-09 0.014003 -5.5768e-09
-4.57045e-09 0.014003 -5.53399e-09
-4.58437e-09 0.014003 -5.48431e-09
-4.41171e-09 0.014003 -5.34443e-09
-4.15989e-09 0.014003 -5.3737e-09
-4.91773e-09 0.014003 -5.49791e-09
-4.73617e-09 0.014003 -5.51073e-09
-4.55441e-09 0.014003 -5.4443e-09
-4.48458e-09 0.014003 -5.51737e-09
-4.01014e-09 0.014003 -5.46567e-09
-5.00611e-09 0.014003 -5.54825e-09
-4.72673e-09 0.014003 -5.53809e-09
-4.66407e-09 0.014003 -5.52529e-09
-4.44452e-09 0.014003 -5.41837e-09
-4.218e-09 0.014003 -5.44882e-09
-5.00206e-09 0.014003 -5.55319e-09
-4.84239e-09 0.014003 -5.47935e-09
-4.5828e-09 0.014003 -5.51704e-09
-4.29497e-09 0.014003 -5.50666e-09
-4.54732e-09 0.014003 -5.42514e-09
-5.16265e-09 0.0152696 -5.68091e-09
-5.02431e-09 0.0152696 -5.67103e-09
-5.04735e-09 0.0152696 -5.35864e-09
-4.83945e-09 0.0152696 -5.53401e-09
-5.13668e-09 0.0152696 -5.51322e-09
-5.04516e-09 0.0152696 -5.46102e-09
-5.12259e-09 0.0152696 -5.60191e-09
-4.97536e-09 0.0152696 -5.41598e-09
-5.0351e-09 0.0152696 -5.47247e-09
-4.81292e-09 0.0152696 -5.52237e-09
-5.2498e-09 0.0152696 -5.58397e-09
-5.21051e-09 0.0152696 -5.53786e-09
-5.01514e-09 0.0152696 -5.5968e-09
-5.0856e-09 0.0152696 -5.4498e-09
-4.6169e-09 0.0152696 -5.41767e-09
-5.37971e-09 0.0152696 -5.63525e-09
-5.28966e-09 0.0152696 -5.60828e-09
-4.9805e-09 0.0152696 -5.56036e-09
-4.98851e-09 0.0152696 -5.47528e-09
-4.7904e-09 0.0152696 -5.5852e-09
-5.22441e-09 0.0152696 -5.56994e-09
-5.20148e-09 0.0152696 -5.57479e-09
-5.07071e-09 0.0152696 -5.63701e-09
-5.03461e-09 0.0152696 -5.71019e-09
-4.93251e-09 0.0152696 -5.52215e-09
-5.9674e-09 0.0165346 -5.44433e-09
-5.46065e-09 0.0165346 -5.35565e-09
-5.53513e-09 0.0165346 -5.48019e-09
-5.72727e-09 0.0165346 -5.55886e-09
-4.87451e-09 0.0165346 -5.3969e-09
-5.57562e-09 0.0165346 -5.49063e-09
-5.64956e-09 0.0165346 -5.44062e-09
-5.5809e-09 0.0165346 -5.49138e-09
-5.38909e-09 0.0165346 -5.42628e-09
-5.40379e-09 0.0165346 -5.48216e-09
-5.71893e-09 0.0165346 -5.58383e-09
-5.68433e-09 0.0165346 -5.49722e-09
-5.41292e-09 0.0165346 -5.53901e-09
-5.41922e-09 0.0165346 -5.345e-09
-5.57846e-09 0.0165346 -5.47581e-09
-5.94254e-09 0.0165346 -5.46922e-09
-5.56916e-09 0.0165346 -5.55409e-09
-5.41483e-09 0.0165346 -5.35036e-09
-5.49341e-09 0.0165346 -5.50024e-09
-5.29488e-09 0.0165346 -5.55218e-09
-5.99587e-09 0.0165346 -5.45781e-09
-5.62142e-09 0.0165346 -5.53587e-09
-5.49856e-09 0.0165346 -5.19708e-09
-5.51773e-09 0.0165346 -5.2481e-09
-5.34568e-09 0.0165346 -5.59445e-09
-5.70859e-09 0.0177979 -5.42164e-09
-6.00824e-09 0.0177979 -5.35201e-09
-6.13797e-09 0.0177979 -5.39352e-09
-5.81117e-09 0.0177979 -5.44715e-09
-6.12671e-09 0.0177979 -5.28643e-09
-5.85827e-09 0.0177979 -5.2928e-09
-6.04356e-09 0.0177979 -5.34301e-09
-6.05556e-09 0.0177979 -5.3716e-09
-5.99802e-09 0.0177979 -5.43573e-09
-6.01581e-09 0.0177979 -5.35732e-09
-6.21759e-09 0.0177979 -5.43074e-09
-6.01722e-09 0.0177979 -5.3928e-09
-5.81699e-09 0.0177979 -5.13775e-09
-6.00876e-09 0.0177979 -5.48019e-09
-5.99423e-09 0.0177979 -5.50915e-09
-6.26645e-09 0.0177979 -5.31674e-09
-6.0047e-09 0.0177979 -5.23229e-09
-5.79382e-09 0.0177979 -5.2319e-09
-6.06385e-09 0.0177979 -5.43586e-09
-5.95615e-09 0.0177979 -5.436e-09
-6.35191e-09 0.0177979 -5.09526e-09
-5.84882e-09 0.0177979 -5.36288e-09
-5.8214e-09 0.0177979 -5.15779e-09
-6.03328e-09 0.0177979 -5.42458e-09
-5.8692e-09 0.0177979 -5.1081e-09
-6.57585e-09 0.0190595 -5.24828e-09
-6.44105e-09 0.0190595 -5.46288e-09
-6.59881e-09 0.0190595 -5.39361e-09
-6.32853e-09 0.0190595 -5.37666e-09
-6.49822e-09 0.0190595 -5.41037e-09
-6.32303e-09 0.0190595 -5.3511e-09
-6.5201e-09 0.0190595 -5.15751e-09
-6.47616e-09 0.0190595 -5.17079e-09
-6.40523e-09 0.0190595 -5.32718e-09
-6.44807e-09 0.0190595 -5.48802e-09
-6.39464e-09 0.0190595 -5.16403e-09
-6.41444e-09 0.0190595 -5.30989e-09
-6.36686e-09 0.0190595 -5.34638e-09
-6.54838e-09 0.0190595 -5.22348e-09
-6.4066e-09 0.0190595 -5.49414e-09
-6.23887e-09 0.0190595 -5.22669e-09
-6.50519e-09 0.0190595 -5.27058e-09
-6.38124e-09 0.0190595 -5.31397e-09
-6.45971e-09 0.0190595 -5.55689e-09
-6.40352e-09 0.0190595 -5.273e-09
-6.2767e-09 0.0190595 -5.35902e-09
-6.53169e-09 0.0190595 -5.37782e-09
-6.43378e-09 0.0190595 -5.47703e-09
-6.52217e-09 0.0190595 -5.35391e-09
-6.29736e-09 0.0190595 -5.3664e-09
-7.34835e-09 0.0203192 -5.40651e-09
-6.60278e-09 0.0203192 -5.07341e-09
-6.8732e-09 0.0203192 -5.10659e-09
-6.89473e-09 0.0203192 -5.31433e-09
-6.5522e-09 0.0203192 -5.44531e-09
-6.81861e-09 0.0203192 -5.25848e-09
-6.85025e-09 0.0203192 -5.31892e-09
-6.7542e-09 0.0203192 -5.10182e-09
-6.93673e-09 0.0203192 -5.33968e-09
-6.70257e-09 0.0203192 -5.32845e-09
-6.7899e-09 0.0203192 -5.23093e-09
-6.78731e-09 0.0203192 -5.1781e-09
-6.83799e-09 0.0203192 -5.21142e-09
-6.87346e-09 0.0203192 -5.23512e-09
-7.06439e-09 0.0203192 -5.10084e-09
-6.40755e-09 0.0203192 -5.20635e-09
-6.94713e-09 0.0203192 -5.18272e-09
-6.77994e-09 0.0203192 -5.08067e-09
-6.91135e-09 0.0203192 -5.03094e-09
-6.73425e-09 0.0203192 -5.17573e-09
-7.32833e-09 0.0203192 -5.25864e-09
-6.58506e-09 0.0203192 -5.14523e-09
-7.14409e-09 0.0203192 -5.39852e-09
-6.73507e-09 0.0203192 -4.97873e-09
-6.92057e-09 0.0203192 -5.41982e-09
-6.97439e-09 0.021577 -4.60463e-09
-7.23874e-09 0.021577 -5.02542e-09
-6.85834e-09 0.021577 -4.60186e-09
-7.51591e-09 0.021577 -4.89908e-09
-6.92031e-09 0.021577 -5.22585e-09
-6.94104e-09 0.021577 -4.78062e-09
-7.1296e-09 0.021577 -4.96836e-09
-7.18634e-09 0.021577 -4.89175e-09
-7.32744e-09 0.021577 -4.93051e-09
-7.00075e-09 0.021577 -4.90119e-09
-6.87323e-09 0.021577 -5.03019e-09
-7.14582e-09 0.021577 -5.09885e-09
-7.13748e-09 0.021577 -4.96815e-09
-7.16255e-09 0.021577 -4.8418e-09
-7.58171e-09 0.021577 -4.76314e-09
-6.95453e-09 0.021577 -4.80463e-09
-6.93261e-09 0.021577 -4.98712e-09
-7.13453e-09 0.021577 -4.87345e-09
-7.14334e-09 0.021577 -4.9786e-09
-7.62484e-09 0.021577 -4.73921e-09
-6.40166e-09 0.021577 -4.70786e-09
-7.16244e-09 0.021577 -4.86471e-09
-6.82969e-09 0.021577 -5.09961e-09
-7.32892e-09 0.021577 -4.70522e-09
-7.51289e-09 0.021577 -4.79714e-09
-6.74663e-09 0.0228328 -4.60334e-09
-7.41222e-09 0.0228328 -4.55158e-09
-7.42142e-09 0.0228328 -4.58872e-09
-7.51089e-09 0.0228328 -4.55983e-09
-7.4772e-09 0.0228328 -4.39233e-09
-7.03996e-09 0.0228328 -4.61181e-09
-7.4475e-09 0.0228328 -4.64277e-09
-7.23803e-09 0.0228328 -4.35673e-09
-7.58482e-09 0.0228328 -4.31995e-09
-7.20881e-09 0.0228328 -4.70543e-09
-7.35657e-09 0.0228328 -4.66422e-09
-7.383e-09 0.0228328 -4.72529e-09
-7.42373e-09 0.0228328 -4.62732e-09
-7.36591e-09 0.0228328 -4.56973e-09
-7.43958e-09 0.0228328 -4.51552e-09
-6.94526e-09 0.0228328 -4.65754e-09
-7.33246e-09 0.0228328 -4.69537e-09
-7.2224e-09 0.0228328 -4.80561e-09
-7.2137e-09 0.0228328 -4.70709e-09
-7.66657e-09 0.0228328 -4.48693e-09
-6.96643e-09 0.0228328 -4.63654e-09
-7.39512e-09 0.0228328 -4.67475e-09
-7.37707e-09 0.0228328 -4.7563e-09
-7.27266e-09 0.0228328 -4.77681e-09
-7.4446e-09 0.0228328 -4.48668e-09
-7.29941e-09 0.0240866 -4.64754e-09
-7.54535e-09 0.0240866 -4.15399e-09
-7.54632e-09 0.0240866 -4.13125e-09
-7.58921e-09 0.0240866 -4.33227e-09
-7.10685e-09 0.0240866 -3.99276e-09
-7.63516e-09 0.0240866 -4.02473e-09
-7.49724e-09 0.0240866 -4.31999e-09
-7.34231e-09 0.0240866 -4.0605e-09
-7.59569e-09 0.0240866 -4.05151e-09
-7.53355e-09 0.0240866 -4.30678e-09
-7.80946e-09 0.0240866 -4.2261e-09
-7.33928e-09 0.0240866 -4.04858e-09
-7.43387e-09 0.0240866 -4.17143e-09
-7.53273e-09 0.0240866 -4.13915e-09
-7.29067e-09 0.0240866 -4.0986e-09
-7.34704e-09 0.0240866 -3.98855e-09
-7.6617e-09 0.0240866 -4.33543e-09
-7.46042e-09 0.0240866 -4.00982e-09
-7.3188e-09 0.0240866 -4.00766e-09
-7.15024e-09 0.0240866 -4.06219e-09
-7.81945e-09 0.0240866 -4.04128e-09
-7.52415e-09 0.0240866 -4.20027e-09
-7.30453e-09 0.0240866 -4.36092e-09
-7.10316e-09 0.0240866 -4.29895e-09
-7.38565e-09 0.0240866 -3.99729e-09
-8.11652e-09 0.0253383 -3.07763e-09
-7.53779e-09 0.0253383 -3.14248e-09
-7.40499e-09 0.0253383 -3.18477e-09
-7.97236e-09 0.0253383 -3.34007e-09
-7.67229e-09 0.0253383 -3.37105e-09
-7.84319e-09 0.0253383 -3.27731e-09
-7.60165e-09 0.0253383 -3.23738e-09
-7.55918e-09 0.0253383 -3.43275e-09
-7.74086e-09 0.0253383 -3.33967e-09
-7.31944e-09 0.0253383 -3.43727e-09
-7.55785e-09 0.0253383 -3.30137e-09
-7.83506e-09 0.0253383 -3.22684e-09
-7.5439e-09 0.0253383 -3.23925e-09
-7.49957e-09 0.0253383 -3.37668e-09
-7.55231e-09 0.0253383 -3.52709e-09
-7.93755e-09 0.0253383 -3.25272e-09
-7.71248e-09 0.0253383 -3.34685e-09
-7.61555e-09 0.0253383 -3.05464e-09
-7.44215e-09 0.0253383 -3.10298e-09
-7.58368e-09 0.0253383 -3.3112e-09
-7.42526e-09 0.0253383 -3.62073e-09
-7.79197e-09 0.0253383 -3.18049e-09
-7.34001e-09 0.0253383 -3.19434e-09
-7.60681e-09 0.0253383 -3.18987e-09
-6.89199e-09 0.0253383 -3.13649e-09
-7.84653e-09 0.026588 -2.0224e-09
-7.74842e-09 0.026588 -2.28861e-09
-7.28818e-09 0.026588 -2.11297e-09
-8.1773e-09 0.026588 -2.58828e-09
-7.83507e-09 0.026588 -1.99383e-09
-7.89849e-09 0.026588 -2.12992e-09
-7.72071e-09 0.026588 -2.16412e-09
-7.5263e-09 0.026588 -2.37722e-09
-7.77218e-09 0.026588 -2.23625e-09
-7.88911e-09 0.026588 -1.97989e-09
-8.21604e-09 0.026588 -2.28583e-09
-7.69909e-09 0.026588 -2.04661e-09
-7.78999e-09 0.026588 -2.16076e-09
-7.73787e-09 0.026588 -2.16826e-09
-7.05204e-09 0.026588 -2.31876e-09
-7.83222e-09 0.026588 -2.2887e-09
-7.81024e-09 0.026588 -2.2516e-09
-7.65342e-09 0.026588 -2.12999e-09
-7.76963e-09 0.026588 -2.31934e-09
-7.45299e-09 0.026588 -2.22308e-09
-7.82326e-09 0.026588 -2.31506e-09
-7.63286e-09 0.026588 -2.30686e-09
-7.44976e-09 0.026588 -2.00561e-09
-7.5134e-09 0.026588 -2.02533e-09
-7.66435e-09 0.026588 -1.90647e-09
-7.87506e-09 0.0278355 -1.03377e-09
-7.53002e-09 0.0278355 -9.97442e-10
-7.87312e-09 0.0278355 -2.05064e-09
-7.904e-09 0.0278355 -1.179e-09
-7.67989e-09 0.0278355 -1.24183e-09
-8.12526e-09 0.0278355 -8.28727e-10
-7.60271e-09 0.0278355 -1.18902e-09
-7.65386e-09 0.0278355 -1.29844e-09
-7.63839e-09 0.0278355 -1.03568e-09
-7.96035e-09 0.0278355 -1.02976e-09
-8.07003e-09 0.0278355 -1.18095e-09
-7.8261e-09 0.0278355 -1.14102e-09
-7.67111e-09 0.0278355 -8.67315e-10
-7.76843e-09 0.0278355 -1.06225e-09
-7.01247e-09 0.0278355 -8.97015e-10
-7.97522e-09 0.0278355 -1.12784e-09
-7.65001e-09 0.0278355 -9.677e-10
-7.66579e-09 0.0278355 -1.13691e-09
-7.75096e-09 0.0278355 -7.90897e-10
-7.66074e-09 0.0278355 -9.83244e-10
-7.40613e-09 0.0278355 -1.13829e-09
-7.70671e-09 0.0278355 -1.18971e-09
-7.63507e-09 0.0278355 -7.78251e-10