<?xml version="1.0"?>
<VTKFile type="UnstructuredGrid" version="0.1" byte_order="LittleEndian">
<UnstructuredGrid>
<Piece NumberOfPoints="1025" NumberOfCells="640">
<Points>
<DataArray type="Float32" NumberOfComponents="3" format="ascii">
0 0 0
0.025 0 0
0.05 0 0
0.075 0 0
0.1 0 0
0 0.025 0
0.025 0.025 0
0.05 0.025 0
0.075 0.025 0
0.1 0.025 0
0 0.05 0
0.025 0.05 0
0.05 0.05 0
0.075 0.05 0
0.1 0.05 0
0 0.075 0
0.025 0.075 0
0.05 0.075 0
0.075 0.075 0
0.1 0.075 0
0 0.1 0
0.025 0.1 0
0.05 0.1 0
0.075 0.1 0
0.1 0.1 0
0 0 0.025
0.025 0 0.025
0.05 0 0.025
0.075 0 0.025
0.1 0 0.025
0 0.025 0.025
0.025 0.025 0.025
0.05 0.025 0.025
0.075 0.025 0.025
0.1 0.025 0.025
0 0.05 0.025
0.025 0.05 0.025
0.05 0.05 0.025
0.075 0.05 0.025
0.1 0.05 0.025
0 0.075 0.025
0.025 0.075 0.025
0.05 0.075 0.025
0.075 0.075 0.025
0.1 0.075 0.025
0 0.1 0.025
0.025 0.1 0.025
0.05 0.1 0.025
0.075 0.1 0.025
0.1 0.1 0.025
0 0 0.05
0.025 0 0.05
0.05 0 0.05
0.075 0 0.05
0.1 0 0.05
0 0.025 0.05
0.025 0.025 0.05
0.05 0.025 0.05
0.075 0.025 0.05
0.1 0.025 0.05
0 0.05 0.05
0.025 0.05 0.05
0.05 0.05 0.05
0.075 0.05 0.05
0.1 0.05 0.05
0 0.075 0.05
0.025 0.075 0.05
0.05 0.075 0.05
0.075 0.075 0.05
0.1 0.075 0.05
0 0.1 0.05
0.025 0.1 0.05
0.05 0.1 0.05
0.075 0.1 0.05
0.1 0.1 0.05
0 0 0.075
0.025 0 0.075
0.05 0 0.075
0.075 0 0.075
0.1 0 0.075
0 0.025 0.075
0.025 0.025 0.075
0.05 0.025 0.075
0.075 0.025 0.075
0.1 0.025 0.075
0 0.05 0.075
0.025 0.05 0.075
0.05 0.05 0.075
0.075 0.05 0.075
0.1 0.05 0.075
0 0.075 0.075
0.025 0.075 0.075
0.05 0.075 0.075
0.075 0.075 0.075
0.1 0.075 0.075
0 0.1 0.075
0.025 0.1 0.075
0.05 0.1 0.075
0.075 0.1 0.075
0.1 0.1 0.075
0 0 0.1
0.025 0 0.1
0.05 0 0.1
0.075 0 0.1
0.1 0 0.1
0 0.025 0.1
0.025 0.025 0.1
0.05 0.025 0.1
0.075 0.025 0.1
0.1 0.025 0.1
0 0.05 0.1
0.025 0.05 0.1
0.05 0.05 0.1
0.075 0.05 0.1
0.1 0.05 0.1
0 0.075 0.1
0.025 0.075 0.1
0.05 0.075 0.1
0.075 0.075 0.1
0.1 0.075 0.1
0 0.1 0.1
0.025 0.1 0.1
0.05 0.1 0.1
0.075 0.1 0.1
0.1 0.1 0.1
0 0 0.125
0.025 0 0.125
0.05 0 0.125
0.075 0 0.125
0.1 0 0.125
0 0.025 0.125
0.025 0.025 0.125
0.05 0.025 0.125
0.075 0.025 0.125
0.1 0.025 0.125
0 0.05 0.125
0.025 0.05 0.125
0.05 0.05 0.125
0.075 0.05 0.125
0.1 0.05 0.125
0 0.075 0.125
0.025 0.075 0.125
0.05 0.075 0.125
0.075 0.075 0.125
0.1 0.075 0.125
0 0.1 0.125
0.025 0.1 0.125
0.05 0.1 0.125
0.075 0.1 0.125
0.1 0.1 0.125
0 0 0.15
0.025 0 0.15
0.05 0 0.15
0.075 0 0.15
0.1 0 0.15
0 0.025 0.15
0.025 0.025 0.15
0.05 0.025 0.15
0.075 0.025 0.15
0.1 0.025 0.15
0 0.05 0.15
0.025 0.05 0.15
0.05 0.05 0.15
0.075 0.05 0.15
0.1 0.05 0.15
0 0.075 0.15
0.025 0.075 0.15
0.05 0.075 0.15
0.075 0.075 0.15
0.1 0.075 0.15
0 0.1 0.15
0.025 0.1 0.15
0.05 0.1 0.15
0.075 0.1 0.15
0.1 0.1 0.15
0 0 0.175
0.025 0 0.175
0.05 0 0.175
0.075 0 0.175
0.1 0 0.175
0 0.025 0.175
0.025 0.025 0.175
0.05 0.025 0.175
0.075 0.025 0.175
0.1 0.025 0.175
0 0.05 0.175
0.025 0.05 0.175
0.05 0.05 0.175
0.075 0.05 0.175
0.1 0.05 0.175
0 0.075 0.175
0.025 0.075 0.175
0.05 0.075 0.175
0.075 0.075 0.175
0.1 0.075 0.175
0 0.1 0.175
0.025 0.1 0.175
0.05 0.1 0.175
0.075 0.1 0.175
0.1 0.1 0.175
0 0 0.2
0.025 0 0.2
0.05 0 0.2
0.075 0 0.2
0.1 0 0.2
0 0.025 0.2
0.025 0.025 0.2
0.05 0.025 0.2
0.075 0.025 0.2
0.1 0.025 0.2
0 0.05 0.2
0.025 0.05 0.2
0.05 0.05 0.2
0.075 0.05 0.2
0.1 0.05 0.2
0 0.075 0.2
0.025 0.075 0.2
0.05 0.075 0.2
0.075 0.075 0.2
0.1 0.075 0.2
0 0.1 0.2
0.025 0.1 0.2
0.05 0.1 0.2
0.075 0.1 0.2
0.1 0.1 0.2
0 0 0.225
0.025 0 0.225
0.05 0 0.225
0.075 0 0.225
0.1 0 0.225
0 0.025 0.225
0.025 0.025 0.225
0.05 0.025 0.225
0.075 0.025 0.225
0.1 0.025 0.225
0 0.05 0.225
0.025 0.05 0.225
0.05 0.05 0.225
0.075 0.05 0.225
0.1 0.05 0.225
0 0.075 0.225
0.025 0.075 0.225
0.05 0.075 0.225
0.075 0.075 0.225
0.1 0.075 0.225
0 0.1 0.225
0.025 0.1 0.225
0.05 0.1 0.225
0.075 0.1 0.225
0.1 0.1 0.225
0 0 0.25
0.025 0 0.25
0.05 0 0.25
0.075 0 0.25
0.1 0 0.25
0 0.025 0.25
0.025 0.025 0.25
0.05 0.025 0.25
0.075 0.025 0.25
0.1 0.025 0.25
0 0.05 0.25
0.025 0.05 0.25
0.05 0.05 0.25
0.075 0.05 0.25
0.1 0.05 0.25
0 0.075 0.25
0.025 0.075 0.25
0.05 0.075 0.25
0.075 0.075 0.25
0.1 0.075 0.25
0 0.1 0.25
0.025 0.1 0.25
0.05 0.1 0.25
0.075 0.1 0.25
0.1 0.1 0.25
0 0 0.275
0.025 0 0.275
0.05 0 0.275
0.075 0 0.275
0.1 0 0.275
0 0.025 0.275
0.025 0.025 0.275
0.05 0.025 0.275
0.075 0.025 0.275
0.1 0.025 0.275
0 0.05 0.275
0.025 0.05 0.275
0.05 0.05 0.275
0.075 0.05 0.275
0.1 0.05 0.275
0 0.075 0.275
0.025 0.075 0.275
0.05 0.075 0.275
0.075 0.075 0.275
0.1 0.075 0.275
0 0.1 0.275
0.025 0.1 0.275
0.05 0.1 0.275
0.075 0.1 0.275
0.1 0.1 0.275
0 0 0.3
0.025 0 0.3
0.05 0 0.3
0.075 0 0.3
0.1 0 0.3
0 0.025 0.3
0.025 0.025 0.3
0.05 0.025 0.3
0.075 0.025 0.3
0.1 0.025 0.3
0 0.05 0.3
0.025 0.05 0.3
0.05 0.05 0.3
0.075 0.05 0.3
0.1 0.05 0.3
0 0.075 0.3
0.025 0.075 0.3
0.05 0.075 0.3
0.075 0.075 0.3
0.1 0.075 0.3
0 0.1 0.3
0.025 0.1 0.3
0.05 0.1 0.3
0.075 0.1 0.3
0.1 0.1 0.3
0 0 0.325
0.025 0 0.325
0.05 0 0.325
0.075 0 0.325
0.1 0 0.325
0 0.025 0.325
0.025 0.025 0.325
0.05 0.025 0.325
0.075 0.025 0.325
0.1 0.025 0.325
0 0.05 0.325
0.025 0.05 0.325
0.05 0.05 0.325
0.075 0.05 0.325
0.1 0.05 0.325
0 0.075 0.325
0.025 0.075 0.325
0.05 0.075 0.325
0.075 0.075 0.325
0.1 0.075 0.325
0 0.1 0.325
0.025 0.1 0.325
0.05 0.1 0.325
0.075 0.1 0.325
0.1 0.1 0.325
0 0 0.35
0.025 0 0.35
0.05 0 0.35
0.075 0 0.35
0.1 0 0.35
0 0.025 0.35
0.025 0.025 0.35
0.05 0.025 0.35
0.075 0.025 0.35
0.1 0.025 0.35
0 0.05 0.35
0.025 0.05 0.35
0.05 0.05 0.35
0.075 0.05 0.35
0.1 0.05 0.35
0 0.075 0.35
0.025 0.075 0.35
0.05 0.075 0.35
0.075 0.075 0.35
0.1 0.075 0.35
0 0.1 0.35
0.025 0.1 0.35
0.05 0.1 0.35
0.075 0.1 0.35
0.1 0.1 0.35
0 0 0.375
0.025 0 0.375
0.05 0 0.375
0.075 0 0.375
0.1 0 0.375
0 0.025 0.375
0.025 0.025 0.375
0.05 0.025 0.375
0.075 0.025 0.375
0.1 0.025 0.375
0 0.05 0.375
0.025 0.05 0.375
0.05 0.05 0.375
0.075 0.05 0.375
0.1 0.05 0.375
0 0.075 0.375
0.025 0.075 0.375
0.05 0.075 0.375
0.075 0.075 0.375
0.1 0.075 0.375
0 0.1 0.375
0.025 0.1 0.375
0.05 0.1 0.375
0.075 0.1 0.375
0.1 0.1 0.375
0 0 0.4
0.025 0 0.4
0.05 0 0.4
0.075 0 0.4
0.1 0 0.4
0 0.025 0.4
0.025 0.025 0.4
0.05 0.025 0.4
0.075 0.025 0.4
0.1 0.025 0.4
0 0.05 0.4
0.025 0.05 0.4
0.05 0.05 0.4
0.075 0.05 0.4
0.1 0.05 0.4
0 0.075 0.4
0.025 0.075 0.4
0.05 0.075 0.4
0.075 0.075 0.4
0.1 0.075 0.4
0 0.1 0.4
0.025 0.1 0.4
0.05 0.1 0.4
0.075 0.1 0.4
0.1 0.1 0.4
0 0 0.425
0.025 0 0.425
0.05 0 0.425
0.075 0 0.425
0.1 0 0.425
0 0.025 0.425
0.025 0.025 0.425
0.05 0.025 0.425
0.075 0.025 0.425
0.1 0.025 0.425
0 0.05 0.425
0.025 0.05 0.425
0.05 0.05 0.425
0.075 0.05 0.425
0.1 0.05 0.425
0 0.075 0.425
0.025 0.075 0.425
0.05 0.075 0.425
0.075 0.075 0.425
0.1 0.075 0.425
0 0.1 0.425
0.025 0.1 0.425
0.05 0.1 0.425
0.075 0.1 0.425
0.1 0.1 0.425
0 0 0.45
0.025 0 0.45
0.05 0 0.45
0.075 0 0.45
0.1 0 0.45
0 0.025 0.45
0.025 0.025 0.45
0.05 0.025 0.45
0.075 0.025 0.45
0.1 0.025 0.45
0 0.05 0.45
0.025 0.05 0.45
0.05 0.05 0.45
0.075 0.05 0.45
0.1 0.05 0.45
0 0.075 0.45
0.025 0.075 0.45
0.05 0.075 0.45
0.075 0.075 0.45
0.1 0.075 0.45
0 0.1 0.45
0.025 0.1 0.45
0.05 0.1 0.45
0.075 0.1 0.45
0.1 0.1 0.45
0 0 0.475
0.025 0 0.475
0.05 0 0.475
0.075 0 0.475
0.1 0 0.475
0 0.025 0.475
0.025 0.025 0.475
0.05 0.025 0.475
0.075 0.025 0.475
0.1 0.025 0.475
0 0.05 0.475
0.025 0.05 0.475
0.05 0.05 0.475
0.075 0.05 0.475
0.1 0.05 0.475
0 0.075 0.475
0.025 0.075 0.475
0.05 0.075 0.475
0.075 0.075 0.475
0.1 0.075 0.475
0 0.1 0.475
0.025 0.1 0.475
0.05 0.1 0.475
0.075 0.1 0.475
0.1 0.1 0.475
0 0 0.5
0.025 0 0.5
0.05 0 0.5
0.075 0 0.5
0.1 0 0.5
0 0.025 0.5
0.025 0.025 0.5
0.05 0.025 0.5
0.075 0.025 0.5
0.1 0.025 0.5
0 0.05 0.5
0.025 0.05 0.5
0.05 0.05 0.5
0.075 0.05 0.5
0.1 0.05 0.5
0 0.075 0.5
0.025 0.075 0.5
0.05 0.075 0.5
0.075 0.075 0.5
0.1 0.075 0.5
0 0.1 0.5
0.025 0.1 0.5
0.05 0.1 0.5
0.075 0.1 0.5
0.1 0.1 0.5
0 0 0.525
0.025 0 0.525
0.05 0 0.525
0.075 0 0.525
0.1 0 0.525
0 0.025 0.525
0.025 0.025 0.525
0.05 0.025 0.525
0.075 0.025 0.525
0.1 0.025 0.525
0 0.05 0.525
0.025 0.05 0.525
0.05 0.05 0.525
0.075 0.05 0.525
0.1 0.05 0.525
0 0.075 0.525
0.025 0.075 0.525
0.05 0.075 0.525
0.075 0.075 0.525
0.1 0.075 0.525
0 0.1 0.525
0.025 0.1 0.525
0.05 0.1 0.525
0.075 0.1 0.525
0.1 0.1 0.525
0 0 0.55
0.025 0 0.55
0.05 0 0.55
0.075 0 0.55
0.1 0 0.55
0 0.025 0.55
0.025 0.025 0.55
0.05 0.025 0.55
0.075 0.025 0.55
0.1 0.025 0.55
0 0.05 0.55
0.025 0.05 0.55
0.05 0.05 0.55
0.075 0.05 0.55
0.1 0.05 0.55
0 0.075 0.55
0.025 0.075 0.55
0.05 0.075 0.55
0.075 0.075 0.55
0.1 0.075 0.55
0 0.1 0.55
0.025 0.1 0.55
0.05 0.1 0.55
0.075 0.1 0.55
0.1 0.1 0.55
0 0 0.575
0.025 0 0.575
0.05 0 0.575
0.075 0 0.575
0.1 0 0.575
0 0.025 0.575
0.025 0.025 0.575
0.05 0.025 0.575
0.075 0.025 0.575
0.1 0.025 0.575
0 0.05 0.575
0.025 0.05 0.575
0.05 0.05 0.575
0.075 0.05 0.575
0.1 0.05 0.575
0 0.075 0.575
0.025 0.075 0.575
0.05 0.075 0.575
0.075 0.075 0.575
0.1 0.075 0.575
0 0.1 0.575
0.025 0.1 0.575
0.05 0.1 0.575
0.075 0.1 0.575
0.1 0.1 0.575
0 0 0.6
0.025 0 0.6
0.05 0 0.6
0.075 0 0.6
0.1 0 0.6
0 0.025 0.6
0.025 0.025 0.6
0.05 0.025 0.6
0.075 0.025 0.6
0.1 0.025 0.6
0 0.05 0.6
0.025 0.05 0.6
0.05 0.05 0.6
0.075 0.05 0.6
0.1 0.05 0.6
0 0.075 0.6
0.025 0.075 0.6
0.05 0.075 0.6
0.075 0.075 0.6
0.1 0.075 0.6
0 0.1 0.6
0.025 0.1 0.6
0.05 0.1 0.6
0.075 0.1 0.6
0.1 0.1 0.6
0 0 0.625
0.025 0 0.625
0.05 0 0.625
0.075 0 0.625
0.1 0 0.625
0 0.025 0.625
0.025 0.025 0.625
0.05 0.025 0.625
0.075 0.025 0.625
0.1 0.025 0.625
0 0.05 0.625
0.025 0.05 0.625
0.05 0.05 0.625
0.075 0.05 0.625
0.1 0.05 0.625
0 0.075 0.625
0.025 0.075 0.625
0.05 0.075 0.625
0.075 0.075 0.625
0.1 0.075 0.625
0 0.1 0.625
0.025 0.1 0.625
0.05 0.1 0.625
0.075 0.1 0.625
0.1 0.1 0.625
0 0 0.65
0.025 0 0.65
0.05 0 0.65
0.075 0 0.65
0.1 0 0.65
0 0.025 0.65
0.025 0.025 0.65
0.05 0.025 0.65
0.075 0.025 0.65
0.1 0.025 0.65
0 0.05 0.65
0.025 0.05 0.65
0.05 0.05 0.65
0.075 0.05 0.65
0.1 0.05 0.65
0 0.075 0.65
0.025 0.075 0.65
0.05 0.075 0.65
0.075 0.075 0.65
0.1 0.075 0.65
0 0.1 0.65
0.025 0.1 0.65
0.05 0.1 0.65
0.075 0.1 0.65
0.1 0.1 0.65
0 0 0.675
0.025 0 0.675
0.05 0 0.675
0.075 0 0.675
0.1 0 0.675
[...]
<PointData Vectors="Displacement">
<DataArray type="Float32" Name="Displacement" NumberOfComponents="3" format="ascii">
0 0 0
0 0 0
0 0 0
0 0 0
0 0 0
0 0 0
0 0 0
0 0 0
0 0 0
0 0 0
0 0 0
0 0 0
0 0 0
0 0 0
0 0 0
0 0 0
0 0 0
0 0 0
0 0 0
0 0 0
0 0 0
0 0 0
0 0 0
0 0 0
0 0 0
-1.69375e-10 0.00122707 6.30833e-10
-2.70362e-10 0.00122707 6.31419e-10
-3.49728e-10 0.00122707 6.39848e-10
-4.06276e-10 0.00122707 6.41988e-10
-5.15615e-10 0.00122707 6.18445e-10
-1.81099e-10 0.00122707 6.22973e-10
-2.73498e-10 0.00122707 6.27967e-10
-3.40645e-10 0.00122707 6.27312e-10
-4.07241e-10 0.00122707 6.3065e-10
-5.13988e-10 0.00122707 6.24677e-10
-1.62559e-10 0.00122707 6.19616e-10
-2.72746e-10 0.00122707 6.26796e-10
-3.31768e-10 0.00122707 6.19656e-10
-4.01353e-10 0.00122707 6.36084e-10
-5.06176e-10 0.00122707 6.23982e-10
-1.40271e-10 0.00122707 6.32755e-10
-2.75802e-10 0.00122707 6.1472e-10
-3.35792e-10 0.00122707 6.28176e-10
-4.04859e-10 0.00122707 6.31728e-10
-5.30577e-10 0.00122707 6.28163e-10
-1.01264e-10 0.00122707 6.273e-10
-2.71386e-10 0.00122707 6.28151e-10
-3.24528e-10 0.00122707 6.26261e-10
-4.02285e-10 0.00122707 6.38083e-10
-5.33339e-10 0.00122707 6.50922e-10
-4.31006e-10 0.00245429 1.24049e-09
-5.79901e-10 0.00245429 1.30527e-09
-6.67302e-10 0.00245429 1.27708e-09
-7.87888e-10 0.00245429 1.25746e-09
-8.68493e-10 0.00245429 1.22914e-09
-4.60977e-10 0.00245429 1.27952e-09
-5.66263e-10 0.00245429 1.2782e-09
-6.90335e-10 0.00245429 1.30037e-09
-7.79385e-10 0.00245429 1.26852e-09
-8.89688e-10 0.00245429 1.27999e-09
-4.95903e-10 0.00245429 1.28238e-09
-5.78038e-10 0.00245429 1.28057e-09
-6.70362e-10 0.00245429 1.25058e-09
-7.93053e-10 0.00245429 1.29826e-09
-8.56923e-10 0.00245429 1.30453e-09
-4.28145e-10 0.00245429 1.26361e-09
-5.96514e-10 0.00245429 1.25193e-09
-6.52427e-10 0.00245429 1.298e-09
-7.91829e-10 0.00245429 1.29895e-09
-8.95951e-10 0.00245429 1.27546e-09
-4.96456e-10 0.00245429 1.28342e-09
-5.50754e-10 0.00245429 1.27753e-09
-7.01362e-10 0.00245429 1.25876e-09
-7.82586e-10 0.00245429 1.29895e-09
-9.59873e-10 0.00245429 1.27979e-09
-8.23991e-10 0.00368178 1.94973e-09
-8.95459e-10 0.00368178 1.95771e-09
-1.04027e-09 0.00368178 2.02923e-09
-1.17565e-09 0.00368178 1.98368e-09
-1.14766e-09 0.00368178 1.97543e-09
-7.85026e-10 0.00368178 1.96053e-09
-9.19849e-10 0.00368178 1.96265e-09
-1.03062e-09 0.00368178 1.94536e-09
-1.12982e-09 0.00368178 1.98889e-09
-1.21225e-09 0.00368178 1.95646e-09
-8.02897e-10 0.00368178 1.9636e-09
-9.33601e-10 0.00368178 1.94734e-09
-1.02042e-09 0.00368178 1.95152e-09
-1.11684e-09 0.00368178 1.96761e-09
-1.20859e-09 0.00368178 1.95199e-09
-8.14235e-10 0.00368178 1.94397e-09
-9.11058e-10 0.00368178 1.95918e-09
-1.01979e-09 0.00368178 1.92965e-09
-1.134e-09 0.00368178 1.9656e-09
-1.24283e-09 0.00368178 1.96819e-09
-8.63004e-10 0.00368178 1.92651e-09
-9.10376e-10 0.00368178 1.89735e-09
-9.93531e-10 0.00368178 1.91134e-09
-1.17443e-09 0.00368178 1.92987e-09
-1.32227e-09 0.00368178 1.92786e-09
-1.16137e-09 0.00490969 2.63246e-09
-1.26919e-09 0.00490969 2.6217e-09
-1.37785e-09 0.00490969 2.63372e-09
-1.50042e-09 0.00490969 2.68759e-09
-1.59615e-09 0.00490969 2.68822e-09
-1.24197e-09 0.00490969 2.62396e-09
-1.29087e-09 0.00490969 2.60925e-09
-1.36583e-09 0.00490969 2.65583e-09
-1.49848e-09 0.00490969 2.66117e-09
-1.49471e-09 0.00490969 2.69425e-09
-1.21528e-09 0.00490969 2.61626e-09
-1.30648e-09 0.00490969 2.62667e-09
-1.33673e-09 0.00490969 2.61024e-09
-1.46852e-09 0.00490969 2.66388e-09
-1.53706e-09 0.00490969 2.63992e-09
-1.14061e-09 0.00490969 2.62478e-09
-1.30022e-09 0.00490969 2.61875e-09
-1.34375e-09 0.00490969 2.63004e-09
-1.46721e-09 0.00490969 2.61114e-09
-1.51088e-09 0.00490969 2.64384e-09
-1.18698e-09 0.00490969 2.64258e-09
-1.22932e-09 0.00490969 2.6296e-09
-1.34785e-09 0.00490969 2.49959e-09
-1.45482e-09 0.00490969 2.56018e-09
-1.62466e-09 0.00490969 2.6096e-09
-1.61057e-09 0.00613815 3.28389e-09
-1.67665e-09 0.00613816 3.31749e-09
-1.71154e-09 0.00613815 3.2397e-09
-1.82051e-09 0.00613815 3.26531e-09
-1.86402e-09 0.00613815 3.36702e-09
-1.54094e-09 0.00613815 3.33569e-09
-1.66894e-09 0.00613815 3.34168e-09
-1.69064e-09 0.00613815 3.26457e-09
-1.81007e-09 0.00613815 3.36515e-09
-1.93752e-09 0.00613815 3.36767e-09
-1.64045e-09 0.00613815 3.28856e-09
-1.63901e-09 0.00613815 3.31011e-09
-1.67791e-09 0.00613815 3.35245e-09
-1.82013e-09 0.00613815 3.39473e-09
-1.85966e-09 0.00613815 3.444e-09
-1.5417e-09 0.00613815 3.347e-09
-1.64941e-09 0.00613815 3.38812e-09
-1.71281e-09 0.00613815 3.38472e-09
-1.80004e-09 0.00613815 3.36505e-09
-1.78179e-09 0.00613815 3.37675e-09
-1.49187e-09 0.00613815 3.32053e-09
-1.58861e-09 0.00613815 3.39363e-09
-1.71416e-09 0.00613815 3.35401e-09
-1.75518e-09 0.00613815 3.25485e-09
-1.80428e-09 0.00613815 3.40685e-09
-1.86679e-09 0.0073673 4.03957e-09
-2.12208e-09 0.0073673 4.0594e-09
-2.03752e-09 0.0073673 3.93916e-09
-2.15008e-09 0.0073673 3.98284e-09
-2.15505e-09 0.0073673 4.19036e-09
-2.02815e-09 0.0073673 4.01153e-09
-2.05561e-09 0.0073673 3.98448e-09
-2.02824e-09 0.0073673 3.99829e-09
-2.11864e-09 0.0073673 4.00812e-09
-2.10264e-09 0.0073673 4.10596e-09
-2.03176e-09 0.0073673 4.11773e-09
-2.00902e-09 0.0073673 4.09864e-09
-2.00246e-09 0.0073673 4.00243e-09
-2.13709e-09 0.0073673 4.08718e-09
-2.22294e-09 0.0073673 4.08104e-09
-1.98074e-09 0.0073673 4.10149e-09
-1.99922e-09 0.0073673 4.09169e-09
-2.06581e-09 0.0073673 4.08676e-09
-2.13125e-09 0.0073673 4.08193e-09
-2.13591e-09 0.0073673 4.11874e-09
-1.88999e-09 0.0073673 4.05606e-09
-1.99693e-09 0.0073673 4.07104e-09
-2.07517e-09 0.0073673 4.13821e-09
-2.15501e-09 0.0073673 4.13951e-09
-2.02413e-09 0.0073673 4.01235e-09
-2.48805e-09 0.00859726 4.66751e-09
-2.44351e-09 0.00859726 4.72319e-09
-2.39535e-09 0.00859726 4.7157e-09
-2.2972e-09 0.00859725 4.67677e-09
-2.71573e-09 0.00859725 4.6983e-09
-2.44379e-09 0.00859726 4.78051e-09
-2.412e-09 0.00859725 4.74371e-09
-2.40276e-09 0.00859725 4.71186e-09
-2.4228e-09 0.00859725 4.73965e-09
-2.56794e-09 0.00859725 4.76133e-09
-2.32329e-09 0.00859725 4.81958e-09
-2.4028e-09 0.00859725 4.80537e-09
-2.45184e-09 0.00859725 4.76099e-09
-2.46073e-09 0.00859725 4.74335e-09
-2.56331e-09 0.00859725 4.73227e-09
-2.31232e-09 0.00859725 4.79877e-09
-2.37362e-09 0.00859725 4.78081e-09
-2.4374e-09 0.00859725 4.71282e-09
-2.48394e-09 0.00859725 4.80687e-09
-2.58655e-09 0.00859725 4.75769e-09
-2.40897e-09 0.00859725 4.7713e-09
-2.3836e-09 0.00859725 4.86322e-09
-2.38355e-09 0.00859725 4.72482e-09
-2.47906e-09 0.00859725 4.83691e-09
-2.59826e-09 0.00859725 4.84424e-09
-2.44236e-09 0.00982815 5.42538e-09
-2.89329e-09 0.00982815 5.46828e-09
-2.67672e-09 0.00982814 5.30736e-09
-2.92618e-09 0.00982815 5.4168e-09
-2.52076e-09 0.00982814 5.3155e-09
-2.8218e-09 0.00982815 5.50722e-09
-2.68479e-09 0.00982815 5.42254e-09
-2.73372e-09 0.00982814 5.38261e-09
-2.83767e-09 0.00982814 5.37313e-09
-2.81148e-09 0.00982814 5.351e-09
-2.75357e-09 0.00982815 5.43089e-09
-2.69086e-09 0.00982815 5.46971e-09
-2.64032e-09 0.00982814 5.36906e-09
-2.94541e-09 0.00982814 5.45395e-09
-2.87166e-09 0.00982814 5.44924e-09
-2.72304e-09 0.00982815 5.4813e-09
-2.71669e-09 0.00982814 5.44316e-09
-2.70561e-09 0.00982814 5.50375e-09
-2.9555e-09 0.00982814 5.52183e-09
-2.92777e-09 0.00982814 5.53687e-09
-2.76949e-09 0.00982814 5.55434e-09
-2.90032e-09 0.00982814 5.58892e-09
-2.69304e-09 0.00982814 5.39272e-09
-2.80279e-09 0.00982814 5.57019e-09
-3.13715e-09 0.00982814 5.50891e-09
-2.76314e-09 0.0110601 6.02647e-09
-3.02648e-09 0.0110601 5.82596e-09
-3.19829e-09 0.0110601 5.97173e-09
-3.2149e-09 0.0110601 5.85055e-09
-3.24197e-09 0.0110601 5.92439e-09
-2.8615e-09 0.0110601 5.96346e-09
-3.08856e-09 0.0110601 5.98767e-09
-3.11629e-09 0.0110601 5.88209e-09
-3.16861e-09 0.0110601 5.86593e-09
-3.23311e-09 0.0110601 5.87808e-09
-3.00694e-09 0.0110601 5.98338e-09
-3.08939e-09 0.0110601 6.05572e-09
-3.05818e-09 0.0110601 5.92223e-09
-3.20895e-09 0.0110601 6.03513e-09
-3.21299e-09 0.0110601 6.11794e-09
-3.09486e-09 0.0110601 6.03791e-09
-3.0116e-09 0.0110601 6.0458e-09
-3.04222e-09 0.0110601 6.06722e-09
-3.13784e-09 0.0110601 6.18817e-09
-3.41502e-09 0.0110601 6.08296e-09
-2.97197e-09 0.0110601 5.94437e-09
-2.98367e-09 0.0110601 5.99859e-09
-3.01003e-09 0.0110601 6.13887e-09
-3.2032e-09 0.0110601 6.11263e-09
-3.43056e-09 0.0110601 6.07345e-09
-3.4066e-09 0.0122932 6.5436e-09
-3.27827e-09 0.0122932 6.65913e-09
-3.42053e-09 0.0122932 6.18123e-09
-3.45071e-09 0.0122932 6.38089e-09
-3.44656e-09 0.0122932 6.52816e-09
-3.29339e-09 0.0122932 6.49818e-09
-3.39041e-09 0.0122932 6.53824e-09
-3.37783e-09 0.0122932 6.44685e-09
-3.46596e-09 0.0122932 6.39523e-09
-3.39313e-09 0.0122932 6.44784e-09
-3.39221e-09 0.0122932 6.59094e-09
-3.40223e-09 0.0122932 6.63434e-09
-3.39827e-09 0.0122932 6.5733e-09
-3.43329e-09 0.0122932 6.62678e-09
-3.55078e-09 0.0122932 6.49305e-09
-3.42452e-09 0.0122932 6.68254e-09
-3.41167e-09 0.0122932 6.53681e-09
-3.30452e-09 0.0122932 6.62927e-09
-3.58342e-09 0.0122932 6.49371e-09
-3.55482e-09 0.0122932 6.56727e-09
-3.58389e-09 0.0122932 6.66319e-09
-3.21816e-09 0.0122932 6.57992e-09
-3.30954e-09 0.0122932 6.44528e-09
-3.63417e-09 0.0122932 6.69686e-09
-3.36767e-09 0.0122932 6.55862e-09
-3.23739e-09 0.0135276 7.11034e-09
-3.6963e-09 0.0135276 6.9954e-09
-3.64832e-09 0.0135276 7.10562e-09
-3.72231e-09 0.0135276 6.94734e-09
-3.80527e-09 0.0135276 7.24126e-09
-3.52267e-09 0.0135276 7.20812e-09
-3.66378e-09 0.0135276 7.1458e-09
-3.7455e-09 0.0135276 6.93185e-09
-3.76171e-09 0.0135276 7.00593e-09
-3.69697e-09 0.0135276 7.07213e-09
-3.74903e-09 0.0135276 7.13246e-09
-3.68373e-09 0.0135276 7.20578e-09
-3.77305e-09 0.0135276 7.15987e-09
-3.8061e-09 0.0135276 7.03687e-09
-3.55521e-09 0.0135276 7.1899e-09
-3.78194e-09 0.0135276 7.36425e-09
-3.79307e-09 0.0135276 7.19939e-09
-3.74534e-09 0.0135276 7.06798e-09
-3.73279e-09 0.0135276 7.19653e-09
-3.84472e-09 0.0135276 7.2478e-09
-3.92034e-09 0.0135276 7.41413e-09
-3.77024e-09 0.0135276 7.27427e-09
-3.79706e-09 0.0135276 6.98518e-09
-3.49905e-09 0.0135276 7.22217e-09
-4.12615e-09 0.0135276 7.37181e-09
-3.63712e-09 0.0147633 7.6331e-09
-3.83076e-09 0.0147633 7.648e-09
-3.97841e-09 0.0147633 7.74247e-09
-4.0081e-09 0.0147633 7.53777e-09
-3.97267e-09 0.0147633 7.59547e-09
-3.69808e-09 0.0147633 7.74126e-09
-3.9932e-09 0.0147633 7.63387e-09
-4.0473e-09 0.0147633 7.65307e-09
-4.04002e-09 0.0147633 7.56409e-09
-4.03138e-09 0.0147633 7.54088e-09
-3.96482e-09 0.0147633 7.77735e-09
-4.10919e-09 0.0147633 7.71519e-09
-3.98776e-09 0.0147633 7.50319e-09
-4.12577e-09 0.0147633 7.67345e-09
-4.02763e-09 0.0147633 7.70573e-09
-4.01473e-09 0.0147633 7.84508e-09
-4.15611e-09 0.0147633 7.81595e-09
-3.94246e-09 0.0147633 7.86362e-09
-4.07899e-09 0.0147633 7.72525e-09
-4.2039e-09 0.0147633 7.67639e-09
-3.95912e-09 0.0147633 7.87338e-09
-4.24017e-09 0.0147633 7.7543e-09
-3.91167e-09 0.0147633 7.61627e-09
-4.13064e-09 0.0147633 7.88945e-09
-4.11981e-09 0.0147633 7.7189e-09
-4.26569e-09 0.0160005 8.20703e-09
-4.0609e-09 0.0160005 8.07841e-09
-4.15713e-09 0.0160005 8.11313e-09
-4.44058e-09 0.0160005 7.7218e-09
-4.06375e-09 0.0160005 7.92621e-09
-4.22495e-09 0.0160005 8.1131e-09
-4.3633e-09 0.0160005 8.24759e-09
-4.28334e-09 0.0160005 8.09066e-09
-4.19301e-09 0.0160005 8.17601e-09
-4.24856e-09 0.0160005 8.06387e-09
-4.45044e-09 0.0160005 8.2115e-09
-4.40288e-09 0.0160005 8.25591e-09
-4.26678e-09 0.0160005 8.24923e-09
-4.18173e-09 0.0160005 8.12689e-09
-4.54198e-09 0.0160005 8.16531e-09
-4.4751e-09 0.0160005 8.4765e-09
-4.28707e-09 0.0160005 8.33739e-09
-4.26008e-09 0.0160005 8.40218e-09
-4.37479e-09 0.0160005 8.31921e-09
-4.26376e-09 0.0160005 8.05607e-09
-4.59188e-09 0.0160005 8.47964e-09
-4.35521e-09 0.0160005 8.50114e-09
-4.28041e-09 0.0160005 8.53555e-09
-4.2288e-09 0.0160005 8.3987e-09
-4.33781e-09 0.0160005 8.2183e-09
-4.03054e-09 0.0172392 8.61989e-09
-4.358e-09 0.0172392 8.72208e-09
-4.4572e-09 0.0172392 8.22803e-09
-4.50203e-09 0.0172392 8.37586e-09
-4.64601e-09 0.0172392 8.71885e-09
-4.41025e-09 0.0172392 8.66968e-09
-4.53129e-09 0.0172392 8.60832e-09
-4.45514e-09 0.0172392 8.67236e-09
-4.48755e-09 0.0172392 8.48043e-09
-4.72217e-09 0.0172392 8.50138e-09
-4.69628e-09 0.0172392 8.7605e-09
-4.55702e-09 0.0172392 8.82414e-09
-4.38732e-09 0.0172392 8.91446e-09
-4.5569e-09 0.0172392 8.6087e-09
-4.4346e-09 0.0172392 8.46928e-09
-4.70856e-09 0.0172392 9.01046e-09
-4.54751e-09 0.0172392 8.90969e-09
-4.34601e-09 0.0172392 8.98441e-09
-4.64347e-09 0.0172392 8.62447e-09
-4.66861e-09 0.0172392 8.69394e-09
-4.70023e-09 0.0172392 8.98505e-09
-4.52055e-09 0.0172392 9.2019e-09
-4.32897e-09 0.0172392 8.91783e-09
-4.63346e-09 0.0172392 8.88818e-09
-4.69358e-09 0.0172392 8.61925e-09
-4.67923e-09 0.0184795 9.08483e-09
-4.63928e-09 0.0184795 9.02998e-09
-4.55161e-09 0.0184795 8.93028e-09
-4.63329e-09 0.0184795 8.83079e-09
-4.61519e-09 0.0184795 8.88014e-09
-4.59252e-09 0.0184795 9.11014e-09
-4.72816e-09 0.0184795 9.05289e-09
-4.65074e-09 0.0184795 9.02329e-09
-4.7457e-09 0.0184795 8.99993e-09
-4.55645e-09 0.0184795 8.74882e-09
-4.62916e-09 0.0184795 9.13715e-09
-4.7387e-09 0.0184795 9.10325e-09
-4.66291e-09 0.0184795 9.12481e-09
-4.73622e-09 0.0184795 8.84033e-09
-4.61303e-09 0.0184795 8.75468e-09
-4.67871e-09 0.0184795 9.10978e-09
-4.84581e-09 0.0184795 9.2539e-09
-4.69234e-09 0.0184795 9.14988e-09
-4.7445e-09 0.0184795 9.01375e-09
-4.53533e-09 0.0184795 8.99427e-09
-4.38566e-09 0.0184795 9.05919e-09
-4.96828e-09 0.0184795 9.19385e-09
-4.63973e-09 0.0184795 9.28789e-09
-4.90346e-09 0.0184795 9.09502e-09
-4.50995e-09 0.0184795 9.25318e-09
-5.43889e-09 0.0197215 9.44048e-09
-4.69208e-09 0.0197215 9.52724e-09
-4.84847e-09 0.0197215 9.47676e-09
-4.78631e-09 0.0197215 8.86861e-09
-4.49413e-09 0.0197215 9.15698e-09
-5.06912e-09 0.0197215 9.41857e-09
-4.90744e-09 0.0197215 9.34245e-09
-4.71861e-09 0.0197215 9.10398e-09
-4.84682e-09 0.0197215 9.01389e-09
-4.80937e-09 0.0197215 9.16432e-09
-4.74618e-09 0.0197215 9.34879e-09
-4.94118e-09 0.0197215 9.43349e-09
-4.79195e-09 0.0197215 9.21731e-09
-4.71398e-09 0.0197215 9.20663e-09
-4.72316e-09 0.0197215 9.29859e-09
-5.16624e-09 0.0197215 9.1546e-09
-5.02584e-09 0.0197215 9.41219e-09
-4.86699e-09 0.0197215 9.49121e-09
-4.86712e-09 0.0197215 9.35172e-09
-4.40461e-09 0.0197214 9.28706e-09
-4.87429e-09 0.0197215 9.64496e-09
-4.81707e-09 0.0197215 9.18548e-09
-5.00915e-09 0.0197215 9.27959e-09
-4.6215e-09 0.0197214 9.3953e-09
-4.92222e-09 0.0197215 9.34172e-09
-4.9421e-09 0.0209651 9.58231e-09
-5.07563e-09 0.0209651 9.91232e-09
-4.67526e-09 0.0209651 9.6093e-09
-5.11696e-09 0.0209651 9.48612e-09
-4.47481e-09 0.0209651 9.54079e-09
-4.76947e-09 0.0209651 9.66798e-09
-5.0832e-09 0.0209651 9.6013e-09
-4.83839e-09 0.0209651 9.65704e-09
-4.91078e-09 0.0209651 9.59765e-09
-4.90133e-09 0.0209651 9.41861e-09
-4.9928e-09 0.0209651 9.60896e-09
-4.97228e-09 0.0209651 9.54591e-09
-4.88545e-09 0.0209651 9.48013e-09
-4.70042e-09 0.0209651 9.58055e-09
-4.73855e-09 0.0209651 9.61727e-09
-4.80617e-09 0.0209651 9.60336e-09
-4.95297e-09 0.0209651 9.36444e-09
-4.87337e-09 0.0209651 9.6602e-09
-4.78722e-09 0.0209651 9.47733e-09
-4.99095e-09 0.0209651 9.56872e-09
-4.56272e-09 0.0209651 9.78748e-09
-5.20515e-09 0.0209651 9.55187e-09
-4.58773e-09 0.0209651 9.59696e-09
-4.74296e-09 0.0209651 9.5806e-09
-5.24665e-09 0.0209651 9.4381e-09
-5.15456e-09 0.0222106 9.61272e-09
-4.98989e-09 0.0222106 9.64569e-09
-4.77927e-09 0.0222106 1.00463e-08
-4.96926e-09 0.0222106 9.71945e-09
-4.40123e-09 0.0222106 9.97242e-09
-5.10291e-09 0.0222106 9.70713e-09
-4.9875e-09 0.0222106 9.73829e-09
-4.85884e-09 0.0222106 9.95994e-09
-4.89181e-09 0.0222106 9.7585e-09
-4.42813e-09 0.0222106 9.71471e-09
-4.94325e-09 0.0222106 9.89235e-09
-4.99175e-09 0.0222106 9.75628e-09
-4.77086e-09 0.0222106 9.79646e-09
-4.65353e-09 0.0222106 9.7537e-09
-4.68654e-09 0.0222106 9.79319e-09
-4.74347e-09 0.0222106 9.86011e-09
-4.97506e-09 0.0222106 9.74469e-09
-4.81013e-09 0.0222106 9.68052e-09
-4.65448e-09 0.0222106 9.68887e-09
-4.55971e-09 0.0222106 9.89292e-09
-5.06387e-09 0.0222106 1.01842e-08
-4.83346e-09 0.0222106 9.67605e-09
-4.7232e-09 0.0222106 9.71875e-09
-4.71677e-09 0.0222106 9.45926e-09
-4.51956e-09 0.0222106 9.85023e-09
-5.41359e-09 0.0234578 9.79119e-09
-4.87483e-09 0.0234578 9.84106e-09
-4.63066e-09 0.0234578 9.89546e-09
-4.60043e-09 0.0234578 9.5824e-09
-4.74508e-09 0.0234578 9.92589e-09
-5.18278e-09 0.0234578 1.01939e-08
-4.90648e-09 0.0234578 9.92889e-09
-4.50214e-09 0.0234578 9.84126e-09
-4.57291e-09 0.0234578 9.98406e-09
-4.48487e-09 0.0234578 9.70312e-09
-4.87814e-09 0.0234578 1.00945e-08
-4.71126e-09 0.0234578 1.00955e-08
-4.74378e-09 0.0234578 1.00335e-08
-4.54347e-09 0.0234578 9.69464e-09
-4.01735e-09 0.0234578 9.874e-09
-4.86197e-09 0.0234578 1.01685e-08
-4.81395e-09 0.0234578 1.00833e-08
-4.56202e-09 0.0234578 1.00466e-08
-4.47415e-09 0.0234578 1.00242e-08
-4.2301e-09 0.0234578 1.00479e-08
-4.87941e-09 0.0234578 1.02733e-08
-4.82182e-09 0.0234578 9.849e-09
-4.30438e-09 0.0234578 9.809e-09
-4.49745e-09 0.0234578 1.00135e-08
-4.38705e-09 0.0234578 1.00227e-08
-5.2345e-09 0.0247068 1.05514e-08
-4.57533e-09 0.0247068 1.06778e-08
-4.22414e-09 0.0247068 1.01826e-08
-4.35212e-09 0.0247068 1.03747e-08
-3.90512e-09 0.0247068 1.00223e-08
-4.379e-09 0.0247068 1.03751e-08
-4.62258e-09 0.0247068 1.03395e-08
-4.52131e-09 0.0247068 1.02768e-08
-4.40889e-09 0.0247068 1.00938e-08
-3.70535e-09 0.0247068 1.01455e-08
-4.68043e-09 0.0247068 1.04029e-08
-4.68423e-09 0.0247068 1.04684e-08
-4.58383e-09 0.0247068 1.03441e-08
-4.21956e-09 0.0247068 1.0299e-08
-4.09177e-09 0.0247068 1.01925e-08
-4.6129e-09 0.0247068 1.04059e-08
-4.58464e-09 0.0247068 1.03635e-08
-4.45422e-09 0.0247068 1.06187e-08
-4.36873e-09 0.0247068 1.04176e-08
-4.41333e-09 0.0247068 1.04153e-08
-4.6478e-09 0.0247068 1.04835e-08
-4.81502e-09 0.0247068 1.01141e-08
-4.37268e-09 0.0247068 1.04023e-08
-4.42473e-09 0.0247068 1.07776e-08
-4.6251e-09 0.0247068 1.02724e-08
-4.34501e-09 0.0259576 1.08535e-08
-4.24199e-09 0.0259576 1.11556e-08
-4.14027e-09 0.0259576 1.07841e-08
-4.45259e-09 0.0259576 1.06228e-08
-3.53909e-09 0.0259576 1.07486e-08
-4.72191e-09 0.0259576 1.08968e-08
-4.28288e-09 0.0259576 1.06855e-08
-4.14208e-09 0.0259577 1.07499e-08
-4.11826e-09 0.0259576 1.07853e-08
-3.70808e-09 0.0259576 1.08484e-08
-4.41098e-09 0.0259576 1.09973e-08
-4.32975e-09 0.0259576 1.08988e-08
-4.33844e-09 0.0259576 1.0833e-08
-4.1224e-09 0.0259576 1.11406e-08
-3.54812e-09 0.0259576 1.06553e-08
-4.32741e-09 0.0259576 1.09037e-08
-4.43834e-09 0.0259576 1.09555e-08
-4.09629e-09 0.0259576 1.10699e-08
-4.24651e-09 0.0259576 1.06668e-08
-4.18241e-09 0.0259576 1.11009e-08
-4.5053e-09 0.0259576 1.11109e-08
-4.52587e-09 0.0259576 1.0787e-08
-3.69458e-09 0.0259576 1.05626e-08
-4.07557e-09 0.0259576 1.10432e-08
-4.1521e-09 0.0259576 1.0992e-08
-4.21842e-09 0.0272103 1.11792e-08
-4.00961e-09 0.0272103 1.14116e-08
-4.14324e-09 0.0272103 1.06599e-08
-3.92307e-09 0.0272103 1.12142e-08
-3.51389e-09 0.0272103 1.13927e-08
-4.18484e-09 0.0272103 1.1409e-08
-3.91719e-09 0.0272103 1.11524e-08
-4.00314e-09 0.0272103 1.12182e-08
-3.91339e-09 0.0272103 1.1386e-08
-3.68751e-09 0.0272103 1.14478e-08
-4.3932e-09 0.0272103 1.10662e-08
-3.97506e-09 0.0272103 1.1253e-08
-3.78757e-09 0.0272103 1.15119e-08
-3.91511e-09 0.0272103 1.14021e-08
-3.33561e-09 0.0272103 1.15965e-08
-3.78402e-09 0.0272103 1.13406e-08
-4.07718e-09 0.0272103 1.13082e-08
-3.96074e-09 0.0272103 1.14914e-08
-3.88443e-09 0.0272103 1.15721e-08
-3.96083e-09 0.0272103 1.138e-08
-3.56736e-09 0.0272103 1.1405e-08
-4.13255e-09 0.0272103 1.18179e-08
-4.07157e-09 0.0272103 1.17181e-08
-3.78883e-09 0.0272103 1.14107e-08
-4.31802e-09 0.0272103 1.17196e-08
-3.84831e-09 0.0284647 1.1787e-08
-4.19923e-09 0.0284647 1.13639e-08
-3.68086e-09 0.0284647 1.17666e-08
-3.42302e-09 0.0284647 1.1474e-08
-3.04909e-09 0.0284647 1.17291e-08
-3.99636e-09 0.0284647 1.1736e-08
-3.87427e-09 0.0284647 1.18165e-08
-3.49005e-09 0.0284647 1.16086e-08
-3.55421e-09 0.0284647 1.17778e-08
-3.7019e-09 0.0284647 1.17833e-08
-3.79752e-09 0.0284647 1.18255e-08
-3.81186e-09 0.0284647 1.19072e-08