<?xml version="1.0"?>
<VTKFile type="UnstructuredGrid" version="0.1" byte_order="LittleEndian">
<UnstructuredGrid>
<Piece NumberOfPoints="1025" NumberOfCells="640">
<Points>
<DataArray type="Float32" NumberOfComponents="3" format="ascii">
0 0 0
0.025 0 0
0.05 0 0
0.075 0 0
0.1 0 0
0 0.025 0
0.025 0.025 0
0.05 0.025 0
0.075 0.025 0
0.1 0.025 0
0 0.05 0
0.025 0.05 0
0.05 0.05 0
0.075 0.05 0
0.1 0.05 0
0 0.075 0
0.025 0.075 0
0.05 0.075 0
0.075 0.075 0
0.1 0.075 0
0 0.1 0
0.025 0.1 0
0.05 0.1 0
0.075 0.1 0
0.1 0.1 0
0 0 0.025
0.025 0 0.025
0.05 0 0.025
0.075 0 0.025
0.1 0 0.025
0 0.025 0.025
0.025 0.025 0.025
0.05 0.025 0.025
0.075 0.025 0.025
0.1 0.025 0.025
0 0.05 0.025
0.025 0.05 0.025
0.05 0.05 0.025
0.075 0.05 0.025
0.1 0.05 0.025
0 0.075 0.025
0.025 0.075 0.025
0.05 0.075 0.025
0.075 0.075 0.025
0.1 0.075 0.025
0 0.1 0.025
0.025 0.1 0.025
0.05 0.1 0.025
0.075 0.1 0.025
0.1 0.1 0.025
0 0 0.05
0.025 0 0.05
0.05 0 0.05
0.075 0 0.05
0.1 0 0.05
0 0.025 0.05
0.025 0.025 0.05
0.05 0.025 0.05
0.075 0.025 0.05
0.1 0.025 0.05
0 0.05 0.05
0.025 0.05 0.05
0.05 0.05 0.05
0.075 0.05 0.05
0.1 0.05 0.05
0 0.075 0.05
0.025 0.075 0.05
0.05 0.075 0.05
0.075 0.075 0.05
0.1 0.075 0.05
0 0.1 0.05
0.025 0.1 0.05
0.05 0.1 0.05
0.075 0.1 0.05
0.1 0.1 0.05
0 0 0.075
0.025 0 0.075
0.05 0 0.075
0.075 0 0.075
0.1 0 0.075
0 0.025 0.075
0.025 0.025 0.075
0.05 0.025 0.075
0.075 0.025 0.075
0.1 0.025 0.075
0 0.05 0.075
0.025 0.05 0.075
0.05 0.05 0.075
0.075 0.05 0.075
0.1 0.05 0.075
0 0.075 0.075
0.025 0.075 0.075
0.05 0.075 0.075
0.075 0.075 0.075
0.1 0.075 0.075
0 0.1 0.075
0.025 0.1 0.075
0.05 0.1 0.075
0.075 0.1 0.075
0.1 0.1 0.075
0 0 0.1
0.025 0 0.1
0.05 0 0.1
0.075 0 0.1
0.1 0 0.1
0 0.025 0.1
0.025 0.025 0.1
0.05 0.025 0.1
0.075 0.025 0.1
0.1 0.025 0.1
0 0.05 0.1
0.025 0.05 0.1
0.05 0.05 0.1
0.075 0.05 0.1
0.1 0.05 0.1
0 0.075 0.1
0.025 0.075 0.1
0.05 0.075 0.1
0.075 0.075 0.1
0.1 0.075 0.1
0 0.1 0.1
0.025 0.1 0.1
0.05 0.1 0.1
0.075 0.1 0.1
0.1 0.1 0.1
0 0 0.125
0.025 0 0.125
0.05 0 0.125
0.075 0 0.125
0.1 0 0.125
0 0.025 0.125
0.025 0.025 0.125
0.05 0.025 0.125
0.075 0.025 0.125
0.1 0.025 0.125
0 0.05 0.125
0.025 0.05 0.125
0.05 0.05 0.125
0.075 0.05 0.125
0.1 0.05 0.125
0 0.075 0.125
0.025 0.075 0.125
0.05 0.075 0.125
0.075 0.075 0.125
0.1 0.075 0.125
0 0.1 0.125
0.025 0.1 0.125
0.05 0.1 0.125
0.075 0.1 0.125
0.1 0.1 0.125
0 0 0.15
0.025 0 0.15
0.05 0 0.15
0.075 0 0.15
0.1 0 0.15
0 0.025 0.15
0.025 0.025 0.15
0.05 0.025 0.15
0.075 0.025 0.15
0.1 0.025 0.15
0 0.05 0.15
0.025 0.05 0.15
0.05 0.05 0.15
0.075 0.05 0.15
0.1 0.05 0.15
0 0.075 0.15
0.025 0.075 0.15
0.05 0.075 0.15
0.075 0.075 0.15
0.1 0.075 0.15
0 0.1 0.15
0.025 0.1 0.15
0.05 0.1 0.15
0.075 0.1 0.15
0.1 0.1 0.15
0 0 0.175
0.025 0 0.175
0.05 0 0.175
0.075 0 0.175
0.1 0 0.175
0 0.025 0.175
0.025 0.025 0.175
0.05 0.025 0.175
0.075 0.025 0.175
0.1 0.025 0.175
0 0.05 0.175
0.025 0.05 0.175
0.05 0.05 0.175
0.075 0.05 0.175
0.1 0.05 0.175
0 0.075 0.175
0.025 0.075 0.175
0.05 0.075 0.175
0.075 0.075 0.175
0.1 0.075 0.175
0 0.1 0.175
0.025 0.1 0.175
0.05 0.1 0.175
0.075 0.1 0.175
0.1 0.1 0.175
0 0 0.2
0.025 0 0.2
0.05 0 0.2
0.075 0 0.2
0.1 0 0.2
0 0.025 0.2
0.025 0.025 0.2
0.05 0.025 0.2
0.075 0.025 0.2
0.1 0.025 0.2
0 0.05 0.2
0.025 0.05 0.2
0.05 0.05 0.2
0.075 0.05 0.2
0.1 0.05 0.2
0 0.075 0.2
0.025 0.075 0.2
0.05 0.075 0.2
0.075 0.075 0.2
0.1 0.075 0.2
0 0.1 0.2
0.025 0.1 0.2
0.05 0.1 0.2
0.075 0.1 0.2
0.1 0.1 0.2
0 0 0.225
0.025 0 0.225
0.05 0 0.225
0.075 0 0.225
0.1 0 0.225
0 0.025 0.225
0.025 0.025 0.225
0.05 0.025 0.225
0.075 0.025 0.225
0.1 0.025 0.225
0 0.05 0.225
0.025 0.05 0.225
0.05 0.05 0.225
0.075 0.05 0.225
0.1 0.05 0.225
0 0.075 0.225
0.025 0.075 0.225
0.05 0.075 0.225
0.075 0.075 0.225
0.1 0.075 0.225
0 0.1 0.225
0.025 0.1 0.225
0.05 0.1 0.225
0.075 0.1 0.225
0.1 0.1 0.225
0 0 0.25
0.025 0 0.25
0.05 0 0.25
0.075 0 0.25
0.1 0 0.25
0 0.025 0.25
0.025 0.025 0.25
0.05 0.025 0.25
0.075 0.025 0.25
0.1 0.025 0.25
0 0.05 0.25
0.025 0.05 0.25
0.05 0.05 0.25
0.075 0.05 0.25
0.1 0.05 0.25
0 0.075 0.25
0.025 0.075 0.25
0.05 0.075 0.25
0.075 0.075 0.25
0.1 0.075 0.25
0 0.1 0.25
0.025 0.1 0.25
0.05 0.1 0.25
0.075 0.1 0.25
0.1 0.1 0.25
0 0 0.275
0.025 0 0.275
0.05 0 0.275
0.075 0 0.275
0.1 0 0.275
0 0.025 0.275
0.025 0.025 0.275
0.05 0.025 0.275
0.075 0.025 0.275
0.1 0.025 0.275
0 0.05 0.275
0.025 0.05 0.275
0.05 0.05 0.275
0.075 0.05 0.275
0.1 0.05 0.275
0 0.075 0.275
0.025 0.075 0.275
0.05 0.075 0.275
0.075 0.075 0.275
0.1 0.075 0.275
0 0.1 0.275
0.025 0.1 0.275
0.05 0.1 0.275
0.075 0.1 0.275
0.1 0.1 0.275
0 0 0.3
0.025 0 0.3
0.05 0 0.3
0.075 0 0.3
0.1 0 0.3
0 0.025 0.3
0.025 0.025 0.3
0.05 0.025 0.3
0.075 0.025 0.3
0.1 0.025 0.3
0 0.05 0.3
0.025 0.05 0.3
0.05 0.05 0.3
0.075 0.05 0.3
0.1 0.05 0.3
0 0.075 0.3
0.025 0.075 0.3
0.05 0.075 0.3
0.075 0.075 0.3
0.1 0.075 0.3
0 0.1 0.3
0.025 0.1 0.3
0.05 0.1 0.3
0.075 0.1 0.3
0.1 0.1 0.3
0 0 0.325
0.025 0 0.325
0.05 0 0.325
0.075 0 0.325
0.1 0 0.325
0 0.025 0.325
0.025 0.025 0.325
0.05 0.025 0.325
0.075 0.025 0.325
0.1 0.025 0.325
0 0.05 0.325
0.025 0.05 0.325
0.05 0.05 0.325
0.075 0.05 0.325
0.1 0.05 0.325
0 0.075 0.325
0.025 0.075 0.325
0.05 0.075 0.325
0.075 0.075 0.325
0.1 0.075 0.325
0 0.1 0.325
0.025 0.1 0.325
0.05 0.1 0.325
0.075 0.1 0.325
0.1 0.1 0.325
0 0 0.35
0.025 0 0.35
0.05 0 0.35
0.075 0 0.35
0.1 0 0.35
0 0.025 0.35
0.025 0.025 0.35
0.05 0.025 0.35
0.075 0.025 0.35
0.1 0.025 0.35
0 0.05 0.35
0.025 0.05 0.35
0.05 0.05 0.35
0.075 0.05 0.35
0.1 0.05 0.35
0 0.075 0.35
0.025 0.075 0.35
0.05 0.075 0.35
0.075 0.075 0.35
0.1 0.075 0.35
0 0.1 0.35
0.025 0.1 0.35
0.05 0.1 0.35
0.075 0.1 0.35
0.1 0.1 0.35
0 0 0.375
0.025 0 0.375
0.05 0 0.375
0.075 0 0.375
0.1 0 0.375
0 0.025 0.375
0.025 0.025 0.375
0.05 0.025 0.375
0.075 0.025 0.375
0.1 0.025 0.375
0 0.05 0.375
0.025 0.05 0.375
0.05 0.05 0.375
0.075 0.05 0.375
0.1 0.05 0.375
0 0.075 0.375
0.025 0.075 0.375
0.05 0.075 0.375
0.075 0.075 0.375
0.1 0.075 0.375
0 0.1 0.375
0.025 0.1 0.375
0.05 0.1 0.375
0.075 0.1 0.375
0.1 0.1 0.375
0 0 0.4
0.025 0 0.4
0.05 0 0.4
0.075 0 0.4
0.1 0 0.4
0 0.025 0.4
0.025 0.025 0.4
0.05 0.025 0.4
0.075 0.025 0.4
0.1 0.025 0.4
0 0.05 0.4
0.025 0.05 0.4
0.05 0.05 0.4
0.075 0.05 0.4
0.1 0.05 0.4
0 0.075 0.4
0.025 0.075 0.4
0.05 0.075 0.4
0.075 0.075 0.4
0.1 0.075 0.4
0 0.1 0.4
0.025 0.1 0.4
0.05 0.1 0.4
0.075 0.1 0.4
0.1 0.1 0.4
0 0 0.425
0.025 0 0.425
0.05 0 0.425
0.075 0 0.425
0.1 0 0.425
0 0.025 0.425
0.025 0.025 0.425
0.05 0.025 0.425
0.075 0.025 0.425
0.1 0.025 0.425
0 0.05 0.425
0.025 0.05 0.425
0.05 0.05 0.425
0.075 0.05 0.425
0.1 0.05 0.425
0 0.075 0.425
0.025 0.075 0.425
0.05 0.075 0.425
0.075 0.075 0.425
0.1 0.075 0.425
0 0.1 0.425
0.025 0.1 0.425
0.05 0.1 0.425
0.075 0.1 0.425
0.1 0.1 0.425
0 0 0.45
0.025 0 0.45
0.05 0 0.45
0.075 0 0.45
0.1 0 0.45
0 0.025 0.45
0.025 0.025 0.45
0.05 0.025 0.45
0.075 0.025 0.45
0.1 0.025 0.45
0 0.05 0.45
0.025 0.05 0.45
0.05 0.05 0.45
0.075 0.05 0.45
0.1 0.05 0.45
0 0.075 0.45
0.025 0.075 0.45
0.05 0.075 0.45
0.075 0.075 0.45
0.1 0.075 0.45
0 0.1 0.45
0.025 0.1 0.45
0.05 0.1 0.45
0.075 0.1 0.45
0.1 0.1 0.45
0 0 0.475
0.025 0 0.475
0.05 0 0.475
0.075 0 0.475
0.1 0 0.475
0 0.025 0.475
0.025 0.025 0.475
0.05 0.025 0.475
0.075 0.025 0.475
0.1 0.025 0.475
0 0.05 0.475
0.025 0.05 0.475
0.05 0.05 0.475
0.075 0.05 0.475
0.1 0.05 0.475
0 0.075 0.475
0.025 0.075 0.475
0.05 0.075 0.475
0.075 0.075 0.475
0.1 0.075 0.475
0 0.1 0.475
0.025 0.1 0.475
0.05 0.1 0.475
0.075 0.1 0.475
0.1 0.1 0.475
0 0 0.5
0.025 0 0.5
0.05 0 0.5
0.075 0 0.5
0.1 0 0.5
0 0.025 0.5
0.025 0.025 0.5
0.05 0.025 0.5
0.075 0.025 0.5
0.1 0.025 0.5
0 0.05 0.5
0.025 0.05 0.5
0.05 0.05 0.5
0.075 0.05 0.5
0.1 0.05 0.5
0 0.075 0.5
0.025 0.075 0.5
0.05 0.075 0.5
0.075 0.075 0.5
0.1 0.075 0.5
0 0.1 0.5
0.025 0.1 0.5
0.05 0.1 0.5
0.075 0.1 0.5
0.1 0.1 0.5
0 0 0.525
0.025 0 0.525
0.05 0 0.525
0.075 0 0.525
0.1 0 0.525
0 0.025 0.525
0.025 0.025 0.525
0.05 0.025 0.525
0.075 0.025 0.525
0.1 0.025 0.525
0 0.05 0.525
0.025 0.05 0.525
0.05 0.05 0.525
0.075 0.05 0.525
0.1 0.05 0.525
0 0.075 0.525
0.025 0.075 0.525
0.05 0.075 0.525
0.075 0.075 0.525
0.1 0.075 0.525
0 0.1 0.525
0.025 0.1 0.525
0.05 0.1 0.525
0.075 0.1 0.525
0.1 0.1 0.525
0 0 0.55
0.025 0 0.55
0.05 0 0.55
0.075 0 0.55
0.1 0 0.55
0 0.025 0.55
0.025 0.025 0.55
0.05 0.025 0.55
0.075 0.025 0.55
0.1 0.025 0.55
0 0.05 0.55
0.025 0.05 0.55
0.05 0.05 0.55
0.075 0.05 0.55
0.1 0.05 0.55
0 0.075 0.55
0.025 0.075 0.55
0.05 0.075 0.55
0.075 0.075 0.55
0.1 0.075 0.55
0 0.1 0.55
0.025 0.1 0.55
0.05 0.1 0.55
0.075 0.1 0.55
0.1 0.1 0.55
0 0 0.575
0.025 0 0.575
0.05 0 0.575
0.075 0 0.575
0.1 0 0.575
0 0.025 0.575
0.025 0.025 0.575
0.05 0.025 0.575
0.075 0.025 0.575
0.1 0.025 0.575
0 0.05 0.575
0.025 0.05 0.575
0.05 0.05 0.575
0.075 0.05 0.575
0.1 0.05 0.575
0 0.075 0.575
0.025 0.075 0.575
0.05 0.075 0.575
0.075 0.075 0.575
0.1 0.075 0.575
0 0.1 0.575
0.025 0.1 0.575
0.05 0.1 0.575
0.075 0.1 0.575
0.1 0.1 0.575
0 0 0.6
0.025 0 0.6
0.05 0 0.6
0.075 0 0.6
0.1 0 0.6
0 0.025 0.6
0.025 0.025 0.6
0.05 0.025 0.6
0.075 0.025 0.6
0.1 0.025 0.6
0 0.05 0.6
0.025 0.05 0.6
0.05 0.05 0.6
0.075 0.05 0.6
0.1 0.05 0.6
0 0.075 0.6
0.025 0.075 0.6
0.05 0.075 0.6
0.075 0.075 0.6
0.1 0.075 0.6
0 0.1 0.6
0.025 0.1 0.6
0.05 0.1 0.6
0.075 0.1 0.6
0.1 0.1 0.6
0 0 0.625
0.025 0 0.625
0.05 0 0.625
0.075 0 0.625
0.1 0 0.625
0 0.025 0.625
0.025 0.025 0.625
0.05 0.025 0.625
0.075 0.025 0.625
0.1 0.025 0.625
0 0.05 0.625
0.025 0.05 0.625
0.05 0.05 0.625
0.075 0.05 0.625
0.1 0.05 0.625
0 0.075 0.625
0.025 0.075 0.625
0.05 0.075 0.625
0.075 0.075 0.625
0.1 0.075 0.625
0 0.1 0.625
0.025 0.1 0.625
0.05 0.1 0.625
0.075 0.1 0.625
0.1 0.1 0.625
0 0 0.65
0.025 0 0.65
0.05 0 0.65
0.075 0 0.65
0.1 0 0.65
0 0.025 0.65
0.025 0.025 0.65
0.05 0.025 0.65
0.075 0.025 0.65
0.1 0.025 0.65
0 0.05 0.65
0.025 0.05 0.65
0.05 0.05 0.65
0.075 0.05 0.65
0.1 0.05 0.65
0 0.075 0.65
0.025 0.075 0.65
0.05 0.075 0.65
0.075 0.075 0.65
0.1 0.075 0.65
0 0.1 0.65
0.025 0.1 0.65
0.05 0.1 0.65
0.075 0.1 0.65
0.1 0.1 0.65
0 0 0.675
0.025 0 0.675
0.05 0 0.675
0.075 0 0.675
0.1 0 0.675
[...]
<PointData Vectors="Displacement">
<DataArray type="Float32" Name="Displacement" NumberOfComponents="3" format="ascii">
0 0 0
0 0 0
0 0 0
0 0 0
0 0 0
0 0 0
0 0 0
0 0 0
0 0 0
0 0 0
0 0 0
0 0 0
0 0 0
0 0 0
0 0 0
0 0 0
0 0 0
0 0 0
0 0 0
0 0 0
0 0 0
0 0 0
0 0 0
0 0 0
0 0 0
-3.72155e-10 0.00128511 -5.75259e-10
-2.69043e-10 0.00128511 -6.05475e-10
-1.91285e-10 0.00128511 -5.96695e-10
-1.1075e-10 0.00128511 -5.90438e-10
2.49626e-11 0.00128511 -6.06023e-10
-4.08262e-10 0.00128511 -6.00222e-10
-2.71043e-10 0.00128511 -6.04159e-10
-1.83786e-10 0.00128511 -5.99116e-10
-9.78647e-11 0.00128511 -6.04076e-10
6.23279e-11 0.00128511 -6.03881e-10
-4.258e-10 0.00128511 -6.02598e-10
-2.62636e-10 0.00128511 -5.96296e-10
-1.84268e-10 0.00128511 -6.15388e-10
-8.82054e-11 0.00128511 -5.97179e-10
4.94576e-11 0.00128511 -6.03641e-10
-3.5791e-10 0.00128511 -5.79286e-10
-2.70493e-10 0.00128511 -5.86922e-10
-1.71877e-10 0.00128511 -5.85416e-10
-9.60397e-11 0.00128511 -5.80162e-10
4.91204e-12 0.00128511 -5.79271e-10
-3.38402e-10 0.00128511 -5.58364e-10
-2.57285e-10 0.00128511 -5.64975e-10
-1.7628e-10 0.00128511 -5.64556e-10
-1.13967e-10 0.00128511 -5.55112e-10
-1.38876e-11 0.00128511 -5.61802e-10
-6.47638e-10 0.00257001 -1.23309e-09
-5.51331e-10 0.00257001 -1.20016e-09
-3.71655e-10 0.00257001 -1.20128e-09
-2.18983e-10 0.00257001 -1.24862e-09
-1.10703e-10 0.00257001 -1.25063e-09
-6.97944e-10 0.00257001 -1.22106e-09
-4.94186e-10 0.00257001 -1.2038e-09
-3.73539e-10 0.00257001 -1.20828e-09
-2.20082e-10 0.00257001 -1.2025e-09
-5.94831e-11 0.00257001 -1.23368e-09
-6.35495e-10 0.00257001 -1.21772e-09
-5.05839e-10 0.00257001 -1.22245e-09
-3.59449e-10 0.00257001 -1.23994e-09
-2.32386e-10 0.00257001 -1.20867e-09
3.28994e-13 0.00257001 -1.20096e-09
-5.85622e-10 0.00257001 -1.18371e-09
-4.91954e-10 0.00257001 -1.18577e-09
-3.51637e-10 0.00257001 -1.16686e-09
-2.5397e-10 0.00257001 -1.19768e-09
-3.91078e-11 0.00257001 -1.21402e-09
-6.22081e-10 0.00257001 -1.21571e-09
-4.44215e-10 0.00257001 -1.18138e-09
-3.87914e-10 0.00257001 -1.1367e-09
-2.39679e-10 0.00257001 -1.15393e-09
-1.89666e-10 0.00257001 -1.17355e-09
-9.08132e-10 0.00385449 -1.7821e-09
-6.84193e-10 0.00385449 -1.79435e-09
-5.41271e-10 0.00385449 -1.80918e-09
-4.4197e-10 0.00385449 -1.80836e-09
-1.58374e-10 0.00385449 -1.75218e-09
-8.88881e-10 0.00385449 -1.8103e-09
-7.26263e-10 0.00385449 -1.77018e-09
-5.41224e-10 0.00385449 -1.78721e-09
-3.8713e-10 0.00385448 -1.78041e-09
-2.20599e-10 0.00385448 -1.79774e-09
-8.59568e-10 0.00385449 -1.80983e-09
-7.14997e-10 0.00385449 -1.77518e-09
-5.3475e-10 0.00385448 -1.79536e-09
-3.7507e-10 0.00385448 -1.80369e-09
-1.6477e-10 0.00385448 -1.82112e-09
-7.98508e-10 0.00385449 -1.8094e-09
-6.62027e-10 0.00385449 -1.80627e-09
-5.53213e-10 0.00385448 -1.75161e-09
-3.91698e-10 0.00385448 -1.76637e-09
-2.63535e-10 0.00385448 -1.79021e-09
-7.22361e-10 0.00385449 -1.8124e-09
-6.51731e-10 0.00385449 -1.7386e-09
-4.92243e-10 0.00385449 -1.80188e-09
-4.04799e-10 0.00385448 -1.739e-09
-2.36681e-10 0.00385448 -1.76608e-09
-1.13782e-09 0.00513832 -2.3173e-09
-8.77085e-10 0.00513832 -2.35599e-09
-7.14872e-10 0.00513832 -2.3478e-09
-5.66783e-10 0.00513832 -2.34135e-09
-3.63932e-10 0.00513832 -2.32468e-09
-1.08097e-09 0.00513832 -2.36611e-09
-9.00552e-10 0.00513832 -2.38592e-09
-6.86063e-10 0.00513832 -2.3603e-09
-5.5012e-10 0.00513832 -2.34353e-09
-3.37706e-10 0.00513832 -2.3401e-09
-1.11528e-09 0.00513832 -2.37167e-09
-8.79618e-10 0.00513832 -2.35881e-09
-7.03972e-10 0.00513832 -2.38082e-09
-5.26069e-10 0.00513832 -2.35872e-09
-2.98502e-10 0.00513832 -2.35684e-09
-9.64756e-10 0.00513832 -2.38829e-09
-8.50469e-10 0.00513832 -2.38088e-09
-6.93957e-10 0.00513832 -2.42306e-09
-5.58161e-10 0.00513832 -2.33662e-09
-2.54643e-10 0.00513832 -2.32711e-09
-1.0257e-09 0.00513832 -2.38729e-09
-7.81299e-10 0.00513832 -2.40257e-09
-7.33384e-10 0.00513832 -2.4335e-09
-5.40993e-10 0.00513832 -2.35694e-09
-4.53069e-10 0.00513832 -2.36853e-09
-1.24163e-09 0.00642131 -2.95617e-09
-1.11599e-09 0.00642131 -2.97361e-09
-8.06214e-10 0.00642131 -2.98424e-09
-7.61476e-10 0.00642131 -2.9399e-09
-5.66429e-10 0.00642131 -2.94215e-09
-1.30576e-09 0.00642131 -2.93707e-09
-1.07681e-09 0.00642131 -2.94997e-09
-8.56075e-10 0.00642131 -2.95907e-09
-7.06393e-10 0.00642131 -2.89505e-09
-5.58256e-10 0.00642131 -2.86914e-09
-1.17538e-09 0.00642131 -2.9313e-09
-1.09892e-09 0.00642131 -2.8534e-09
-8.59813e-10 0.00642131 -2.91941e-09
-6.9159e-10 0.00642131 -2.83956e-09
-4.01198e-10 0.00642131 -2.79908e-09
-1.18218e-09 0.00642131 -2.86502e-09
-1.02602e-09 0.00642131 -2.9228e-09
-8.65548e-10 0.00642131 -2.80166e-09
-7.13608e-10 0.00642131 -2.8394e-09
-4.22426e-10 0.00642131 -2.85251e-09
-1.20669e-09 0.00642131 -2.92248e-09
-9.15162e-10 0.00642131 -2.91641e-09
-7.60326e-10 0.00642131 -2.84466e-09
-6.97214e-10 0.00642131 -2.85729e-09
-5.66729e-10 0.00642131 -2.83048e-09
-1.53596e-09 0.00770325 -3.51375e-09
-1.28895e-09 0.00770325 -3.5438e-09
-9.71148e-10 0.00770325 -3.59608e-09
-9.52848e-10 0.00770325 -3.55811e-09
-6.5061e-10 0.00770325 -3.44513e-09
-1.43999e-09 0.00770325 -3.51574e-09
-1.26107e-09 0.00770325 -3.48552e-09
-1.01282e-09 0.00770325 -3.47774e-09
-8.83356e-10 0.00770325 -3.48503e-09
-6.7494e-10 0.00770325 -3.38221e-09
-1.34905e-09 0.00770325 -3.39488e-09
-1.19942e-09 0.00770325 -3.45249e-09
-1.05643e-09 0.00770325 -3.43728e-09
-8.12891e-10 0.00770325 -3.41022e-09
-7.27467e-10 0.00770325 -3.39433e-09
-1.26601e-09 0.00770325 -3.44421e-09
-1.15357e-09 0.00770325 -3.43145e-09
-9.7153e-10 0.00770325 -3.36648e-09
-8.43489e-10 0.00770325 -3.37308e-09
-6.9188e-10 0.00770325 -3.34643e-09
-1.27787e-09 0.00770325 -3.45625e-09
-1.08895e-09 0.00770325 -3.48485e-09
-9.34601e-10 0.00770325 -3.38465e-09
-9.83369e-10 0.00770325 -3.3429e-09
-5.789e-10 0.00770325 -3.46024e-09
-1.76296e-09 0.00898395 -3.97356e-09
-1.36175e-09 0.00898395 -4.01374e-09
-1.17958e-09 0.00898395 -3.91404e-09
-9.62208e-10 0.00898395 -4.00704e-09
-8.3389e-10 0.00898395 -4.05833e-09
-1.54437e-09 0.00898395 -4.00505e-09
-1.37263e-09 0.00898395 -4.06522e-09
-1.18285e-09 0.00898395 -4.0291e-09
-9.57084e-10 0.00898395 -3.97837e-09
-9.25294e-10 0.00898395 -3.96802e-09
-1.49346e-09 0.00898395 -3.98758e-09
-1.37819e-09 0.00898395 -3.96878e-09
-1.1695e-09 0.00898395 -3.95551e-09
-9.79691e-10 0.00898395 -3.94086e-09
-9.29737e-10 0.00898395 -4.05049e-09
-1.48383e-09 0.00898395 -3.99046e-09
-1.22971e-09 0.00898395 -3.99604e-09
-1.13863e-09 0.00898395 -4.03913e-09
-1.04546e-09 0.00898395 -3.91546e-09
-8.46696e-10 0.00898395 -3.94631e-09
-1.55074e-09 0.00898395 -4.06301e-09
-1.21202e-09 0.00898395 -3.9759e-09
-1.05467e-09 0.00898395 -3.93131e-09
-9.80397e-10 0.00898395 -3.96332e-09
-9.37527e-10 0.00898395 -3.8957e-09
-1.54668e-09 0.0102632 -4.5208e-09
-1.5388e-09 0.0102632 -4.39226e-09
-1.17142e-09 0.0102632 -4.52232e-09
-1.19465e-09 0.0102632 -4.26063e-09
-7.58884e-10 0.0102632 -4.45869e-09
-1.7422e-09 0.0102632 -4.49051e-09
-1.46192e-09 0.0102632 -4.4544e-09
-1.24198e-09 0.0102632 -4.40124e-09
-1.20847e-09 0.0102632 -4.49664e-09
-7.94197e-10 0.0102632 -4.47203e-09
-1.6261e-09 0.0102632 -4.52549e-09
-1.47385e-09 0.0102632 -4.53187e-09
-1.19736e-09 0.0102632 -4.55667e-09
-1.23656e-09 0.0102632 -4.45491e-09
-8.34735e-10 0.0102632 -4.49276e-09
-1.56996e-09 0.0102632 -4.47417e-09
-1.39672e-09 0.0102632 -4.43319e-09
-1.23146e-09 0.0102632 -4.41794e-09
-1.13081e-09 0.0102632 -4.52213e-09
-9.90427e-10 0.0102632 -4.39285e-09
-1.31014e-09 0.0102632 -4.39913e-09
-1.45496e-09 0.0102632 -4.46343e-09
-1.21293e-09 0.0102632 -4.59208e-09
-1.16656e-09 0.0102632 -4.41781e-09
-8.85006e-10 0.0102632 -4.49222e-09
-1.5403e-09 0.0115409 -4.95522e-09
-1.44845e-09 0.0115409 -5.0089e-09
-1.38323e-09 0.0115409 -5.01096e-09
-1.3295e-09 0.0115409 -4.95449e-09
-9.74561e-10 0.0115409 -4.85204e-09
-1.58657e-09 0.0115409 -5.07631e-09
-1.56865e-09 0.0115409 -4.97686e-09
-1.43917e-09 0.0115409 -5.0022e-09
-1.23857e-09 0.0115409 -4.98035e-09
-9.75231e-10 0.0115409 -4.93626e-09
-1.70427e-09 0.0115409 -4.95512e-09
-1.5114e-09 0.0115409 -5.00326e-09
-1.36122e-09 0.0115409 -5.0561e-09
-1.23122e-09 0.0115409 -4.95819e-09
-9.95802e-10 0.0115409 -4.82684e-09
-1.55255e-09 0.0115409 -5.14061e-09
-1.50956e-09 0.0115409 -4.94259e-09
-1.28459e-09 0.0115409 -4.91516e-09
-1.17385e-09 0.0115409 -4.83195e-09
-1.00826e-09 0.0115409 -4.92159e-09
-1.60947e-09 0.0115409 -4.86081e-09
-1.41939e-09 0.0115409 -5.02828e-09
-1.28336e-09 0.0115409 -4.88466e-09
-1.16904e-09 0.0115409 -4.94811e-09
-1.2636e-09 0.0115409 -4.80015e-09
-1.77863e-09 0.0128168 -5.31757e-09
-1.6836e-09 0.0128168 -5.38198e-09
-1.48648e-09 0.0128168 -5.63035e-09
-1.35809e-09 0.0128168 -5.37591e-09
-1.11129e-09 0.0128168 -5.10247e-09
-1.89009e-09 0.0128168 -5.43211e-09
-1.6252e-09 0.0128168 -5.46032e-09
-1.45798e-09 0.0128168 -5.45227e-09
-1.30465e-09 0.0128168 -5.43288e-09
-9.24228e-10 0.0128168 -5.3257e-09
-1.95556e-09 0.0128168 -5.46324e-09
-1.69565e-09 0.0128168 -5.44381e-09
-1.49102e-09 0.0128168 -5.3433e-09
-1.23546e-09 0.0128168 -5.31067e-09
-8.49611e-10 0.0128168 -5.42843e-09
-1.79044e-09 0.0128168 -5.4697e-09
-1.62177e-09 0.0128168 -5.47644e-09
-1.34829e-09 0.0128168 -5.36883e-09
-1.29728e-09 0.0128168 -5.4285e-09
-1.00165e-09 0.0128168 -5.32149e-09
-1.91311e-09 0.0128168 -5.46624e-09
-1.51878e-09 0.0128168 -5.44448e-09
-1.22798e-09 0.0128168 -5.46662e-09
-1.39468e-09 0.0128168 -5.21445e-09
-1.01001e-09 0.0128168 -5.42216e-09
-1.79477e-09 0.0140907 -5.75208e-09
-1.73532e-09 0.0140907 -5.8566e-09
-1.57322e-09 0.0140907 -5.66337e-09
-1.31589e-09 0.0140907 -5.43646e-09
-1.29001e-09 0.0140907 -5.28981e-09
-2.0668e-09 0.0140907 -5.75588e-09
-1.8211e-09 0.0140907 -5.81725e-09
-1.60084e-09 0.0140907 -5.80733e-09
-1.33968e-09 0.0140907 -5.59816e-09
-1.00491e-09 0.0140907 -5.61132e-09
-2.14734e-09 0.0140907 -5.76533e-09
-1.71911e-09 0.0140907 -5.83863e-09
-1.56545e-09 0.0140907 -5.74029e-09
-1.52435e-09 0.0140907 -5.7941e-09
-8.28815e-10 0.0140907 -5.63163e-09
-2.13232e-09 0.0140907 -5.80595e-09
-1.733e-09 0.0140907 -5.74521e-09
-1.58277e-09 0.0140907 -5.82479e-09
-1.32816e-09 0.0140907 -5.66105e-09
-1.13967e-09 0.0140907 -5.71372e-09
-1.85771e-09 0.0140907 -5.66944e-09
-1.85616e-09 0.0140907 -5.71444e-09
-1.4e-09 0.0140907 -5.85161e-09
-1.0841e-09 0.0140907 -5.73379e-09
-1.66265e-09 0.0140907 -5.72926e-09
-1.79128e-09 0.0153625 -5.97729e-09
-1.86101e-09 0.0153625 -6.16366e-09
-1.64321e-09 0.0153625 -5.69351e-09
-1.4749e-09 0.0153625 -5.88928e-09
-1.59165e-09 0.0153625 -6.08087e-09
-2.01639e-09 0.0153625 -5.97132e-09
-1.93618e-09 0.0153625 -5.87874e-09
-1.69391e-09 0.0153625 -5.87081e-09
-1.63395e-09 0.0153625 -5.91132e-09
-1.43339e-09 0.0153625 -5.90712e-09
-2.13174e-09 0.0153625 -6.09316e-09
-1.9564e-09 0.0153625 -6.07501e-09
-1.70701e-09 0.0153625 -6.20051e-09
-1.59562e-09 0.0153625 -5.81604e-09
-1.24523e-09 0.0153625 -5.95121e-09
-1.99291e-09 0.0153625 -5.95582e-09
-2.00063e-09 0.0153625 -6.10104e-09
-1.55486e-09 0.0153625 -5.91371e-09
-1.60517e-09 0.0153625 -6.17568e-09
-1.42079e-09 0.0153625 -6.10091e-09
-2.03932e-09 0.0153625 -5.99452e-09
-1.93906e-09 0.0153625 -5.7952e-09
-1.56624e-09 0.0153625 -6.04563e-09
-1.46265e-09 0.0153625 -6.17436e-09
-1.5905e-09 0.0153625 -6.30003e-09
-2.05931e-09 0.0166322 -6.0249e-09
-2.01795e-09 0.0166322 -6.18278e-09
-2.05686e-09 0.0166322 -6.24451e-09
-1.95441e-09 0.0166322 -6.22305e-09
-1.45219e-09 0.0166322 -6.37637e-09
-1.97291e-09 0.0166322 -6.22945e-09
-2.17161e-09 0.0166322 -6.18834e-09
-1.99233e-09 0.0166322 -6.19056e-09
-1.68336e-09 0.0166322 -6.36367e-09
-1.5746e-09 0.0166322 -6.14081e-09
-2.30253e-09 0.0166322 -6.28296e-09
-2.13369e-09 0.0166322 -6.29667e-09
-1.7939e-09 0.0166322 -6.23354e-09
-1.69494e-09 0.0166322 -6.17135e-09
-1.73929e-09 0.0166322 -6.32664e-09
-2.4198e-09 0.0166322 -6.26612e-09
-1.99099e-09 0.0166322 -6.27589e-09
-1.8266e-09 0.0166322 -6.15412e-09
-1.75102e-09 0.0166322 -6.33234e-09
-1.52037e-09 0.0166322 -6.38812e-09
-2.42297e-09 0.0166322 -6.2553e-09
-2.05574e-09 0.0166322 -6.23286e-09
-1.8047e-09 0.0166322 -6.04737e-09
-1.65554e-09 0.0166322 -6.29696e-09
-1.21144e-09 0.0166322 -6.4614e-09
-2.14489e-09 0.0178995 -6.3994e-09
-2.08674e-09 0.0178995 -6.41835e-09
-2.23975e-09 0.0178995 -6.52875e-09
-2.08214e-09 0.0178994 -6.75876e-09
-2.19689e-09 0.0178994 -6.3792e-09
-2.26044e-09 0.0178995 -6.32717e-09
-2.15412e-09 0.0178995 -6.49626e-09
-2.13296e-09 0.0178995 -6.46499e-09
-2.07087e-09 0.0178994 -6.61483e-09
-1.97141e-09 0.0178994 -6.58678e-09
-2.61533e-09 0.0178995 -6.3768e-09
-2.15713e-09 0.0178994 -6.40059e-09
-1.88949e-09 0.0178995 -6.40524e-09
-1.97918e-09 0.0178994 -6.59917e-09
-1.91291e-09 0.0178994 -6.68728e-09
-2.5403e-09 0.0178994 -6.37302e-09
-2.21685e-09 0.0178994 -6.36624e-09
-1.91094e-09 0.0178994 -6.36973e-09
-1.98658e-09 0.0178995 -6.68154e-09
-1.81381e-09 0.0178994 -6.4542e-09
-2.61555e-09 0.0178994 -6.04037e-09
-2.17753e-09 0.0178994 -6.60596e-09
-2.08114e-09 0.0178994 -6.43955e-09
-1.84308e-09 0.0178994 -6.2916e-09
-1.65513e-09 0.0178994 -6.41119e-09
-2.47336e-09 0.0191643 -6.53505e-09
-2.39755e-09 0.0191643 -6.5737e-09
-2.34255e-09 0.0191643 -7.00097e-09
-2.22333e-09 0.0191643 -7.09883e-09
-2.13118e-09 0.0191643 -6.71729e-09
-2.44197e-09 0.0191643 -6.64631e-09
-2.35711e-09 0.0191643 -6.52319e-09
-2.2131e-09 0.0191643 -6.78421e-09
-2.29864e-09 0.0191643 -6.83273e-09
-2.04194e-09 0.0191643 -6.98471e-09
-2.42617e-09 0.0191643 -6.58844e-09
-2.32722e-09 0.0191643 -6.72738e-09
-2.15525e-09 0.0191643 -6.67871e-09
-2.24971e-09 0.0191643 -6.94654e-09
-2.093e-09 0.0191643 -7.03071e-09
-2.46095e-09 0.0191643 -6.62045e-09
-2.48361e-09 0.0191643 -6.60222e-09
-2.25052e-09 0.0191643 -6.76361e-09
-2.1288e-09 0.0191643 -6.87147e-09
-2.05816e-09 0.0191643 -6.82629e-09
-2.16866e-09 0.0191643 -6.86315e-09
-2.6486e-09 0.0191643 -6.86018e-09
-2.35843e-09 0.0191643 -6.84143e-09
-2.29452e-09 0.0191643 -6.69794e-09
-1.81717e-09 0.0191643 -6.58255e-09
-3.04178e-09 0.0204266 -6.64826e-09
-2.23875e-09 0.0204266 -6.59179e-09
-2.45125e-09 0.0204266 -6.71906e-09
-2.44507e-09 0.0204266 -6.87375e-09
-1.98593e-09 0.0204266 -7.07187e-09
-2.76606e-09 0.0204266 -6.88604e-09
-2.36579e-09 0.0204266 -6.75199e-09
-2.25176e-09 0.0204266 -6.8699e-09
-2.43657e-09 0.0204266 -7.26577e-09
-2.41076e-09 0.0204266 -7.0082e-09
-2.37605e-09 0.0204266 -6.90102e-09
-2.53302e-09 0.0204266 -6.8485e-09
-2.3343e-09 0.0204266 -6.96018e-09
-2.38666e-09 0.0204266 -6.96644e-09
-2.19577e-09 0.0204266 -7.06893e-09
-2.21842e-09 0.0204266 -7.0267e-09
-2.67787e-09 0.0204266 -6.95984e-09
-2.45146e-09 0.0204266 -6.91707e-09
-2.45684e-09 0.0204266 -6.95561e-09
-2.08266e-09 0.0204266 -7.13784e-09
-2.9766e-09 0.0204266 -7.1326e-09
-2.46643e-09 0.0204266 -6.93622e-09
-2.7511e-09 0.0204266 -7.30487e-09
-2.16291e-09 0.0204266 -6.93062e-09
-2.40016e-09 0.0204266 -7.319e-09
-2.17139e-09 0.0216862 -6.39981e-09
-2.64209e-09 0.0216862 -6.8998e-09
-2.31428e-09 0.0216862 -6.63265e-09
-3.00564e-09 0.0216862 -7.23278e-09
-2.95204e-09 0.0216862 -6.97554e-09
-2.3596e-09 0.0216862 -6.82726e-09
-2.61928e-09 0.0216862 -6.7503e-09
-2.49754e-09 0.0216862 -7.05141e-09
-2.73578e-09 0.0216862 -6.9643e-09
-2.68481e-09 0.0216862 -7.07696e-09
-2.60077e-09 0.0216862 -7.11021e-09
-2.52652e-09 0.0216862 -7.22367e-09
-2.60436e-09 0.0216862 -7.04886e-09
-2.50066e-09 0.0216862 -6.9163e-09
-2.54152e-09 0.0216862 -7.11274e-09
-2.59087e-09 0.0216862 -7.37032e-09
-2.73397e-09 0.0216862 -7.23588e-09
-2.62668e-09 0.0216862 -7.2057e-09
-2.44727e-09 0.0216862 -7.21979e-09
-2.73061e-09 0.0216862 -6.98126e-09
-2.31622e-09 0.0216862 -6.97904e-09
-3.06429e-09 0.0216862 -7.25667e-09
-2.3945e-09 0.0216862 -7.24446e-09
-2.5437e-09 0.0216862 -7.07391e-09
-2.55748e-09 0.0216862 -7.22101e-09
-2.3561e-09 0.0229432 -7.0364e-09
-2.59003e-09 0.0229432 -6.72791e-09
-2.56404e-09 0.0229432 -7.17016e-09
-3.016e-09 0.0229432 -7.09138e-09
-2.98271e-09 0.0229432 -7.15906e-09
-2.68302e-09 0.0229432 -7.00439e-09
-2.84062e-09 0.0229432 -7.33844e-09
-2.64763e-09 0.0229432 -6.83463e-09
-2.74781e-09 0.0229432 -7.11811e-09
-2.76201e-09 0.0229432 -7.20099e-09
-2.70295e-09 0.0229432 -7.13877e-09
-2.9018e-09 0.0229432 -7.18936e-09
-2.74443e-09 0.0229432 -7.35749e-09
-2.68883e-09 0.0229432 -7.01388e-09
-2.53213e-09 0.0229432 -7.12693e-09
-2.84299e-09 0.0229432 -7.22065e-09
-2.9872e-09 0.0229432 -7.41363e-09
-2.75467e-09 0.0229432 -7.32845e-09
-2.58342e-09 0.0229432 -7.25088e-09
-2.25886e-09 0.0229432 -7.03601e-09
-2.88125e-09 0.0229432 -7.52552e-09
-3.0023e-09 0.0229432 -7.38568e-09
-2.44318e-09 0.0229432 -7.19653e-09
-2.65226e-09 0.0229432 -7.20751e-09
-3.24662e-09 0.0229432 -7.09775e-09
-2.97466e-09 0.0241975 -7.22909e-09
-2.63607e-09 0.0241975 -7.12701e-09
-2.78523e-09 0.0241975 -7.33779e-09
-2.51772e-09 0.0241975 -7.41086e-09
-2.87138e-09 0.0241975 -7.36903e-09
-3.02632e-09 0.0241975 -7.07884e-09
-2.82862e-09 0.0241975 -7.26747e-09
-2.54777e-09 0.0241975 -7.2906e-09
-2.84002e-09 0.0241975 -7.11884e-09
-2.51619e-09 0.0241975 -7.27354e-09
-3.05736e-09 0.0241975 -7.10286e-09
-3.02233e-09 0.0241975 -7.23124e-09
-2.80006e-09 0.0241975 -7.18022e-09
-2.67733e-09 0.0241975 -7.19996e-09
-2.40188e-09 0.0241975 -7.15043e-09
-3.11497e-09 0.0241975 -7.16673e-09
-3.11429e-09 0.0241975 -7.2399e-09
-2.79547e-09 0.0241975 -7.03854e-09
-2.65265e-09 0.0241975 -7.16718e-09
-2.70997e-09 0.0241975 -7.12622e-09
-3.92829e-09 0.0241975 -7.07167e-09
-2.95772e-09 0.0241975 -7.50064e-09
-2.79377e-09 0.0241975 -7.28063e-09
-2.67578e-09 0.0241975 -7.24677e-09
-2.19285e-09 0.0241975 -7.20463e-09
-3.05487e-09 0.025449 -6.41341e-09
-2.80226e-09 0.025449 -6.70078e-09
-2.57184e-09 0.025449 -7.18761e-09
-3.21835e-09 0.025449 -6.65018e-09
-1.91025e-09 0.025449 -7.1386e-09
-3.20185e-09 0.025449 -6.64838e-09
-3.07139e-09 0.025449 -6.8359e-09
-2.75789e-09 0.025449 -6.87215e-09
-2.64305e-09 0.025449 -6.94229e-09
-2.44734e-09 0.025449 -7.00123e-09
-3.20711e-09 0.025449 -6.8966e-09
-3.3537e-09 0.025449 -6.74935e-09
-2.76768e-09 0.025449 -6.66256e-09
-2.77613e-09 0.025449 -6.99182e-09
-2.43021e-09 0.025449 -7.07046e-09
-3.88722e-09 0.025449 -6.80675e-09
-3.24412e-09 0.025449 -6.98626e-09
-2.99661e-09 0.025449 -6.67561e-09
-2.82406e-09 0.025449 -6.89259e-09
-2.59985e-09 0.025449 -6.98228e-09
-3.1976e-09 0.025449 -6.71298e-09
-3.45274e-09 0.025449 -6.67626e-09
-2.88038e-09 0.025449 -6.82672e-09
-2.87906e-09 0.025449 -7.18608e-09
-3.10421e-09 0.025449 -6.78204e-09
-2.98381e-09 0.0266977 -6.24602e-09
-3.50939e-09 0.0266977 -6.28467e-09
-2.7314e-09 0.0266977 -6.14771e-09
-2.92543e-09 0.0266977 -6.46449e-09
-2.71838e-09 0.0266977 -6.06596e-09
-3.38334e-09 0.0266977 -6.11603e-09
-3.12035e-09 0.0266977 -6.27463e-09
-2.92933e-09 0.0266977 -6.25286e-09
-2.87364e-09 0.0266977 -6.34181e-09
-2.39586e-09 0.0266977 -6.12138e-09
-3.82278e-09 0.0266977 -6.35173e-09
-3.147e-09 0.0266977 -6.15579e-09
-3.01876e-09 0.0266977 -6.12771e-09
-2.79146e-09 0.0266977 -6.38155e-09
-2.25065e-09 0.0266977 -6.50987e-09
-3.81005e-09 0.0266977 -6.18198e-09
-3.48678e-09 0.0266977 -6.05076e-09
-3.03406e-09 0.0266977 -6.1886e-09
-2.99856e-09 0.0266977 -6.53029e-09
-2.70442e-09 0.0266977 -6.2913e-09
-3.82476e-09 0.0266977 -6.13089e-09
-3.80826e-09 0.0266977 -5.98654e-09
-3.08863e-09 0.0266977 -5.97437e-09
-2.70569e-09 0.0266977 -6.31702e-09
-3.1796e-09 0.0266977 -6.4104e-09
-3.4892e-09 0.0279437 -6.06041e-09
-2.97864e-09 0.0279437 -5.80153e-09
-2.87456e-09 0.0279437 -5.87868e-09
-3.22831e-09 0.0279437 -5.70542e-09
-3.13909e-09 0.0279437 -5.33517e-09
-3.2351e-09 0.0279437 -5.65234e-09
-3.17152e-09 0.0279437 -5.84263e-09
-3.06313e-09 0.0279437 -5.56154e-09
-3.02378e-09 0.0279437 -5.49153e-09
-2.93456e-09 0.0279437 -5.57594e-09
-3.67604e-09 0.0279437 -5.46745e-09
-3.37945e-09 0.0279437 -5.30224e-09
-3.10389e-09 0.0279437 -5.49736e-09
-3.04622e-09 0.0279437 -5.73208e-09
-2.64175e-09 0.0279437 -5.45901e-09
-3.43617e-09 0.0279437 -5.39959e-09
-3.3974e-09 0.0279437 -5.35342e-09
-3.10973e-09 0.0279437 -5.44466e-09
-2.95577e-09 0.0279437 -5.52495e-09
-2.56445e-09 0.0279437 -5.61575e-09
-3.04325e-09 0.0279437 -4.97397e-09
-3.33452e-09 0.0279437 -5.37065e-09