<?xml version="1.0"?>
<VTKFile type="UnstructuredGrid" version="0.1" byte_order="LittleEndian">
<UnstructuredGrid>
<Piece NumberOfPoints="1025" NumberOfCells="640">
<Points>
<DataArray type="Float32" NumberOfComponents="3" format="ascii">
0 0 0
0.025 0 0
0.05 0 0
0.075 0 0
0.1 0 0
0 0.025 0
0.025 0.025 0
0.05 0.025 0
0.075 0.025 0
0.1 0.025 0
0 0.05 0
0.025 0.05 0
0.05 0.05 0
0.075 0.05 0
0.1 0.05 0
0 0.075 0
0.025 0.075 0
0.05 0.075 0
0.075 0.075 0
0.1 0.075 0
0 0.1 0
0.025 0.1 0
0.05 0.1 0
0.075 0.1 0
0.1 0.1 0
0 0 0.025
0.025 0 0.025
0.05 0 0.025
0.075 0 0.025
0.1 0 0.025
0 0.025 0.025
0.025 0.025 0.025
0.05 0.025 0.025
0.075 0.025 0.025
0.1 0.025 0.025
0 0.05 0.025
0.025 0.05 0.025
0.05 0.05 0.025
0.075 0.05 0.025
0.1 0.05 0.025
0 0.075 0.025
0.025 0.075 0.025
0.05 0.075 0.025
0.075 0.075 0.025
0.1 0.075 0.025
0 0.1 0.025
0.025 0.1 0.025
0.05 0.1 0.025
0.075 0.1 0.025
0.1 0.1 0.025
0 0 0.05
0.025 0 0.05
0.05 0 0.05
0.075 0 0.05
0.1 0 0.05
0 0.025 0.05
0.025 0.025 0.05
0.05 0.025 0.05
0.075 0.025 0.05
0.1 0.025 0.05
0 0.05 0.05
0.025 0.05 0.05
0.05 0.05 0.05
0.075 0.05 0.05
0.1 0.05 0.05
0 0.075 0.05
0.025 0.075 0.05
0.05 0.075 0.05
0.075 0.075 0.05
0.1 0.075 0.05
0 0.1 0.05
0.025 0.1 0.05
0.05 0.1 0.05
0.075 0.1 0.05
0.1 0.1 0.05
0 0 0.075
0.025 0 0.075
0.05 0 0.075
0.075 0 0.075
0.1 0 0.075
0 0.025 0.075
0.025 0.025 0.075
0.05 0.025 0.075
0.075 0.025 0.075
0.1 0.025 0.075
0 0.05 0.075
0.025 0.05 0.075
0.05 0.05 0.075
0.075 0.05 0.075
0.1 0.05 0.075
0 0.075 0.075
0.025 0.075 0.075
0.05 0.075 0.075
0.075 0.075 0.075
0.1 0.075 0.075
0 0.1 0.075
0.025 0.1 0.075
0.05 0.1 0.075
0.075 0.1 0.075
0.1 0.1 0.075
0 0 0.1
0.025 0 0.1
0.05 0 0.1
0.075 0 0.1
0.1 0 0.1
0 0.025 0.1
0.025 0.025 0.1
0.05 0.025 0.1
0.075 0.025 0.1
0.1 0.025 0.1
0 0.05 0.1
0.025 0.05 0.1
0.05 0.05 0.1
0.075 0.05 0.1
0.1 0.05 0.1
0 0.075 0.1
0.025 0.075 0.1
0.05 0.075 0.1
0.075 0.075 0.1
0.1 0.075 0.1
0 0.1 0.1
0.025 0.1 0.1
0.05 0.1 0.1
0.075 0.1 0.1
0.1 0.1 0.1
0 0 0.125
0.025 0 0.125
0.05 0 0.125
0.075 0 0.125
0.1 0 0.125
0 0.025 0.125
0.025 0.025 0.125
0.05 0.025 0.125
0.075 0.025 0.125
0.1 0.025 0.125
0 0.05 0.125
0.025 0.05 0.125
0.05 0.05 0.125
0.075 0.05 0.125
0.1 0.05 0.125
0 0.075 0.125
0.025 0.075 0.125
0.05 0.075 0.125
0.075 0.075 0.125
0.1 0.075 0.125
0 0.1 0.125
0.025 0.1 0.125
0.05 0.1 0.125
0.075 0.1 0.125
0.1 0.1 0.125
0 0 0.15
0.025 0 0.15
0.05 0 0.15
0.075 0 0.15
0.1 0 0.15
0 0.025 0.15
0.025 0.025 0.15
0.05 0.025 0.15
0.075 0.025 0.15
0.1 0.025 0.15
0 0.05 0.15
0.025 0.05 0.15
0.05 0.05 0.15
0.075 0.05 0.15
0.1 0.05 0.15
0 0.075 0.15
0.025 0.075 0.15
0.05 0.075 0.15
0.075 0.075 0.15
0.1 0.075 0.15
0 0.1 0.15
0.025 0.1 0.15
0.05 0.1 0.15
0.075 0.1 0.15
0.1 0.1 0.15
0 0 0.175
0.025 0 0.175
0.05 0 0.175
0.075 0 0.175
0.1 0 0.175
0 0.025 0.175
0.025 0.025 0.175
0.05 0.025 0.175
0.075 0.025 0.175
0.1 0.025 0.175
0 0.05 0.175
0.025 0.05 0.175
0.05 0.05 0.175
0.075 0.05 0.175
0.1 0.05 0.175
0 0.075 0.175
0.025 0.075 0.175
0.05 0.075 0.175
0.075 0.075 0.175
0.1 0.075 0.175
0 0.1 0.175
0.025 0.1 0.175
0.05 0.1 0.175
0.075 0.1 0.175
0.1 0.1 0.175
0 0 0.2
0.025 0 0.2
0.05 0 0.2
0.075 0 0.2
0.1 0 0.2
0 0.025 0.2
0.025 0.025 0.2
0.05 0.025 0.2
0.075 0.025 0.2
0.1 0.025 0.2
0 0.05 0.2
0.025 0.05 0.2
0.05 0.05 0.2
0.075 0.05 0.2
0.1 0.05 0.2
0 0.075 0.2
0.025 0.075 0.2
0.05 0.075 0.2
0.075 0.075 0.2
0.1 0.075 0.2
0 0.1 0.2
0.025 0.1 0.2
0.05 0.1 0.2
0.075 0.1 0.2
0.1 0.1 0.2
0 0 0.225
0.025 0 0.225
0.05 0 0.225
0.075 0 0.225
0.1 0 0.225
0 0.025 0.225
0.025 0.025 0.225
0.05 0.025 0.225
0.075 0.025 0.225
0.1 0.025 0.225
0 0.05 0.225
0.025 0.05 0.225
0.05 0.05 0.225
0.075 0.05 0.225
0.1 0.05 0.225
0 0.075 0.225
0.025 0.075 0.225
0.05 0.075 0.225
0.075 0.075 0.225
0.1 0.075 0.225
0 0.1 0.225
0.025 0.1 0.225
0.05 0.1 0.225
0.075 0.1 0.225
0.1 0.1 0.225
0 0 0.25
0.025 0 0.25
0.05 0 0.25
0.075 0 0.25
0.1 0 0.25
0 0.025 0.25
0.025 0.025 0.25
0.05 0.025 0.25
0.075 0.025 0.25
0.1 0.025 0.25
0 0.05 0.25
0.025 0.05 0.25
0.05 0.05 0.25
0.075 0.05 0.25
0.1 0.05 0.25
0 0.075 0.25
0.025 0.075 0.25
0.05 0.075 0.25
0.075 0.075 0.25
0.1 0.075 0.25
0 0.1 0.25
0.025 0.1 0.25
0.05 0.1 0.25
0.075 0.1 0.25
0.1 0.1 0.25
0 0 0.275
0.025 0 0.275
0.05 0 0.275
0.075 0 0.275
0.1 0 0.275
0 0.025 0.275
0.025 0.025 0.275
0.05 0.025 0.275
0.075 0.025 0.275
0.1 0.025 0.275
0 0.05 0.275
0.025 0.05 0.275
0.05 0.05 0.275
0.075 0.05 0.275
0.1 0.05 0.275
0 0.075 0.275
0.025 0.075 0.275
0.05 0.075 0.275
0.075 0.075 0.275
0.1 0.075 0.275
0 0.1 0.275
0.025 0.1 0.275
0.05 0.1 0.275
0.075 0.1 0.275
0.1 0.1 0.275
0 0 0.3
0.025 0 0.3
0.05 0 0.3
0.075 0 0.3
0.1 0 0.3
0 0.025 0.3
0.025 0.025 0.3
0.05 0.025 0.3
0.075 0.025 0.3
0.1 0.025 0.3
0 0.05 0.3
0.025 0.05 0.3
0.05 0.05 0.3
0.075 0.05 0.3
0.1 0.05 0.3
0 0.075 0.3
0.025 0.075 0.3
0.05 0.075 0.3
0.075 0.075 0.3
0.1 0.075 0.3
0 0.1 0.3
0.025 0.1 0.3
0.05 0.1 0.3
0.075 0.1 0.3
0.1 0.1 0.3
0 0 0.325
0.025 0 0.325
0.05 0 0.325
0.075 0 0.325
0.1 0 0.325
0 0.025 0.325
0.025 0.025 0.325
0.05 0.025 0.325
0.075 0.025 0.325
0.1 0.025 0.325
0 0.05 0.325
0.025 0.05 0.325
0.05 0.05 0.325
0.075 0.05 0.325
0.1 0.05 0.325
0 0.075 0.325
0.025 0.075 0.325
0.05 0.075 0.325
0.075 0.075 0.325
0.1 0.075 0.325
0 0.1 0.325
0.025 0.1 0.325
0.05 0.1 0.325
0.075 0.1 0.325
0.1 0.1 0.325
0 0 0.35
0.025 0 0.35
0.05 0 0.35
0.075 0 0.35
0.1 0 0.35
0 0.025 0.35
0.025 0.025 0.35
0.05 0.025 0.35
0.075 0.025 0.35
0.1 0.025 0.35
0 0.05 0.35
0.025 0.05 0.35
0.05 0.05 0.35
0.075 0.05 0.35
0.1 0.05 0.35
0 0.075 0.35
0.025 0.075 0.35
0.05 0.075 0.35
0.075 0.075 0.35
0.1 0.075 0.35
0 0.1 0.35
0.025 0.1 0.35
0.05 0.1 0.35
0.075 0.1 0.35
0.1 0.1 0.35
0 0 0.375
0.025 0 0.375
0.05 0 0.375
0.075 0 0.375
0.1 0 0.375
0 0.025 0.375
0.025 0.025 0.375
0.05 0.025 0.375
0.075 0.025 0.375
0.1 0.025 0.375
0 0.05 0.375
0.025 0.05 0.375
0.05 0.05 0.375
0.075 0.05 0.375
0.1 0.05 0.375
0 0.075 0.375
0.025 0.075 0.375
0.05 0.075 0.375
0.075 0.075 0.375
0.1 0.075 0.375
0 0.1 0.375
0.025 0.1 0.375
0.05 0.1 0.375
0.075 0.1 0.375
0.1 0.1 0.375
0 0 0.4
0.025 0 0.4
0.05 0 0.4
0.075 0 0.4
0.1 0 0.4
0 0.025 0.4
0.025 0.025 0.4
0.05 0.025 0.4
0.075 0.025 0.4
0.1 0.025 0.4
0 0.05 0.4
0.025 0.05 0.4
0.05 0.05 0.4
0.075 0.05 0.4
0.1 0.05 0.4
0 0.075 0.4
0.025 0.075 0.4
0.05 0.075 0.4
0.075 0.075 0.4
0.1 0.075 0.4
0 0.1 0.4
0.025 0.1 0.4
0.05 0.1 0.4
0.075 0.1 0.4
0.1 0.1 0.4
0 0 0.425
0.025 0 0.425
0.05 0 0.425
0.075 0 0.425
0.1 0 0.425
0 0.025 0.425
0.025 0.025 0.425
0.05 0.025 0.425
0.075 0.025 0.425
0.1 0.025 0.425
0 0.05 0.425
0.025 0.05 0.425
0.05 0.05 0.425
0.075 0.05 0.425
0.1 0.05 0.425
0 0.075 0.425
0.025 0.075 0.425
0.05 0.075 0.425
0.075 0.075 0.425
0.1 0.075 0.425
0 0.1 0.425
0.025 0.1 0.425
0.05 0.1 0.425
0.075 0.1 0.425
0.1 0.1 0.425
0 0 0.45
0.025 0 0.45
0.05 0 0.45
0.075 0 0.45
0.1 0 0.45
0 0.025 0.45
0.025 0.025 0.45
0.05 0.025 0.45
0.075 0.025 0.45
0.1 0.025 0.45
0 0.05 0.45
0.025 0.05 0.45
0.05 0.05 0.45
0.075 0.05 0.45
0.1 0.05 0.45
0 0.075 0.45
0.025 0.075 0.45
0.05 0.075 0.45
0.075 0.075 0.45
0.1 0.075 0.45
0 0.1 0.45
0.025 0.1 0.45
0.05 0.1 0.45
0.075 0.1 0.45
0.1 0.1 0.45
0 0 0.475
0.025 0 0.475
0.05 0 0.475
0.075 0 0.475
0.1 0 0.475
0 0.025 0.475
0.025 0.025 0.475
0.05 0.025 0.475
0.075 0.025 0.475
0.1 0.025 0.475
0 0.05 0.475
0.025 0.05 0.475
0.05 0.05 0.475
0.075 0.05 0.475
0.1 0.05 0.475
0 0.075 0.475
0.025 0.075 0.475
0.05 0.075 0.475
0.075 0.075 0.475
0.1 0.075 0.475
0 0.1 0.475
0.025 0.1 0.475
0.05 0.1 0.475
0.075 0.1 0.475
0.1 0.1 0.475
0 0 0.5
0.025 0 0.5
0.05 0 0.5
0.075 0 0.5
0.1 0 0.5
0 0.025 0.5
0.025 0.025 0.5
0.05 0.025 0.5
0.075 0.025 0.5
0.1 0.025 0.5
0 0.05 0.5
0.025 0.05 0.5
0.05 0.05 0.5
0.075 0.05 0.5
0.1 0.05 0.5
0 0.075 0.5
0.025 0.075 0.5
0.05 0.075 0.5
0.075 0.075 0.5
0.1 0.075 0.5
0 0.1 0.5
0.025 0.1 0.5
0.05 0.1 0.5
0.075 0.1 0.5
0.1 0.1 0.5
0 0 0.525
0.025 0 0.525
0.05 0 0.525
0.075 0 0.525
0.1 0 0.525
0 0.025 0.525
0.025 0.025 0.525
0.05 0.025 0.525
0.075 0.025 0.525
0.1 0.025 0.525
0 0.05 0.525
0.025 0.05 0.525
0.05 0.05 0.525
0.075 0.05 0.525
0.1 0.05 0.525
0 0.075 0.525
0.025 0.075 0.525
0.05 0.075 0.525
0.075 0.075 0.525
0.1 0.075 0.525
0 0.1 0.525
0.025 0.1 0.525
0.05 0.1 0.525
0.075 0.1 0.525
0.1 0.1 0.525
0 0 0.55
0.025 0 0.55
0.05 0 0.55
0.075 0 0.55
0.1 0 0.55
0 0.025 0.55
0.025 0.025 0.55
0.05 0.025 0.55
0.075 0.025 0.55
0.1 0.025 0.55
0 0.05 0.55
0.025 0.05 0.55
0.05 0.05 0.55
0.075 0.05 0.55
0.1 0.05 0.55
0 0.075 0.55
0.025 0.075 0.55
0.05 0.075 0.55
0.075 0.075 0.55
0.1 0.075 0.55
0 0.1 0.55
0.025 0.1 0.55
0.05 0.1 0.55
0.075 0.1 0.55
0.1 0.1 0.55
0 0 0.575
0.025 0 0.575
0.05 0 0.575
0.075 0 0.575
0.1 0 0.575
0 0.025 0.575
0.025 0.025 0.575
0.05 0.025 0.575
0.075 0.025 0.575
0.1 0.025 0.575
0 0.05 0.575
0.025 0.05 0.575
0.05 0.05 0.575
0.075 0.05 0.575
0.1 0.05 0.575
0 0.075 0.575
0.025 0.075 0.575
0.05 0.075 0.575
0.075 0.075 0.575
0.1 0.075 0.575
0 0.1 0.575
0.025 0.1 0.575
0.05 0.1 0.575
0.075 0.1 0.575
0.1 0.1 0.575
0 0 0.6
0.025 0 0.6
0.05 0 0.6
0.075 0 0.6
0.1 0 0.6
0 0.025 0.6
0.025 0.025 0.6
0.05 0.025 0.6
0.075 0.025 0.6
0.1 0.025 0.6
0 0.05 0.6
0.025 0.05 0.6
0.05 0.05 0.6
0.075 0.05 0.6
0.1 0.05 0.6
0 0.075 0.6
0.025 0.075 0.6
0.05 0.075 0.6
0.075 0.075 0.6
0.1 0.075 0.6
0 0.1 0.6
0.025 0.1 0.6
0.05 0.1 0.6
0.075 0.1 0.6
0.1 0.1 0.6
0 0 0.625
0.025 0 0.625
0.05 0 0.625
0.075 0 0.625
0.1 0 0.625
0 0.025 0.625
0.025 0.025 0.625
0.05 0.025 0.625
0.075 0.025 0.625
0.1 0.025 0.625
0 0.05 0.625
0.025 0.05 0.625
0.05 0.05 0.625
0.075 0.05 0.625
0.1 0.05 0.625
0 0.075 0.625
0.025 0.075 0.625
0.05 0.075 0.625
0.075 0.075 0.625
0.1 0.075 0.625
0 0.1 0.625
0.025 0.1 0.625
0.05 0.1 0.625
0.075 0.1 0.625
0.1 0.1 0.625
0 0 0.65
0.025 0 0.65
0.05 0 0.65
0.075 0 0.65
0.1 0 0.65
0 0.025 0.65
0.025 0.025 0.65
0.05 0.025 0.65
0.075 0.025 0.65
0.1 0.025 0.65
0 0.05 0.65
0.025 0.05 0.65
0.05 0.05 0.65
0.075 0.05 0.65
0.1 0.05 0.65
0 0.075 0.65
0.025 0.075 0.65
0.05 0.075 0.65
0.075 0.075 0.65
0.1 0.075 0.65
0 0.1 0.65
0.025 0.1 0.65
0.05 0.1 0.65
0.075 0.1 0.65
0.1 0.1 0.65
0 0 0.675
0.025 0 0.675
0.05 0 0.675
0.075 0 0.675
0.1 0 0.675
[...]
<PointData Vectors="Displacement">
<DataArray type="Float32" Name="Displacement" NumberOfComponents="3" format="ascii">
0 0 0
0 0 0
0 0 0
0 0 0
0 0 0
0 0 0
0 0 0
0 0 0
0 0 0
0 0 0
0 0 0
0 0 0
0 0 0
0 0 0
0 0 0
0 0 0
0 0 0
0 0 0
0 0 0
0 0 0
0 0 0
0 0 0
0 0 0
0 0 0
0 0 0
4.47022e-11 -0.000941064 -8.71534e-10
2.62259e-10 -0.000941065 -7.28676e-10
2.98767e-10 -0.000941064 -7.41708e-10
3.50182e-10 -0.000941064 -6.61237e-10
4.7977e-10 -0.000941064 -5.52678e-10
2.82823e-11 -0.000941064 -7.24759e-10
1.60022e-10 -0.000941064 -7.71136e-10
2.79157e-10 -0.000941063 -7.3249e-10
3.30548e-10 -0.000941064 -7.85642e-10
4.94343e-10 -0.000941064 -7.57828e-10
-2.98057e-11 -0.000941064 -7.64876e-10
1.6066e-10 -0.000941064 -7.18624e-10
2.88047e-10 -0.000941064 -7.89773e-10
4.25887e-10 -0.000941063 -8.12679e-10
4.71252e-10 -0.000941064 -7.90777e-10
-5.06639e-11 -0.000941064 -7.84647e-10
1.31131e-10 -0.000941063 -8.02425e-10
2.5534e-10 -0.000941064 -8.574e-10
3.71553e-10 -0.000941063 -8.29525e-10
6.04986e-10 -0.000941063 -9.12379e-10
-3.74101e-11 -0.000941063 -7.24899e-10
1.19918e-10 -0.000941063 -8.00618e-10
2.86913e-10 -0.000941064 -9.14193e-10
3.72902e-10 -0.000941064 -9.5413e-10
4.81926e-10 -0.000941063 -7.80818e-10
4.52353e-10 -0.00182289 -1.59407e-09
2.66727e-10 -0.00182289 -1.59481e-09
4.52615e-10 -0.00182289 -1.5974e-09
5.18566e-10 -0.00182289 -1.42808e-09
8.98538e-10 -0.00182289 -1.44365e-09
2.0675e-10 -0.00182289 -1.49235e-09
3.13759e-10 -0.00182289 -1.63798e-09
5.81143e-10 -0.00182289 -1.65027e-09
6.1654e-10 -0.00182289 -1.65174e-09
6.10952e-10 -0.00182289 -1.50583e-09
2.74182e-10 -0.00182289 -1.54134e-09
3.50179e-10 -0.00182289 -1.59174e-09
4.92514e-10 -0.00182289 -1.61789e-09
6.43731e-10 -0.00182289 -1.69539e-09
6.98867e-10 -0.00182289 -1.77576e-09
-1.37099e-10 -0.00182289 -1.72349e-09
2.82182e-10 -0.00182289 -1.57776e-09
4.42077e-10 -0.00182289 -1.69276e-09
6.22865e-10 -0.00182289 -1.81665e-09
7.64427e-10 -0.00182289 -1.7151e-09
1.72108e-10 -0.00182289 -1.81142e-09
2.55417e-10 -0.00182289 -1.7546e-09
4.13644e-10 -0.00182289 -1.78734e-09
5.49852e-10 -0.00182289 -1.68776e-09
1.07781e-09 -0.00182289 -1.72884e-09
7.01418e-10 -0.00259016 -2.46911e-09
3.81475e-10 -0.00259015 -2.55115e-09
6.38512e-10 -0.00259015 -2.65336e-09
6.60123e-10 -0.00259015 -2.84334e-09
6.61618e-10 -0.00259015 -2.49836e-09
7.10878e-10 -0.00259015 -2.61518e-09
4.90305e-10 -0.00259015 -2.7039e-09
6.36541e-10 -0.00259015 -2.72665e-09
7.35803e-10 -0.00259015 -2.76721e-09
8.09225e-10 -0.00259015 -2.77534e-09
3.35273e-10 -0.00259015 -2.65615e-09
4.51507e-10 -0.00259015 -2.65748e-09
6.17647e-10 -0.00259015 -2.68056e-09
6.90812e-10 -0.00259015 -2.92205e-09
7.88835e-10 -0.00259015 -2.69778e-09
3.87223e-10 -0.00259015 -2.68713e-09
5.08983e-10 -0.00259015 -2.61848e-09
5.49103e-10 -0.00259015 -2.84184e-09
5.8453e-10 -0.00259015 -2.79609e-09
7.9014e-10 -0.00259015 -2.717e-09
5.70348e-10 -0.00259015 -2.64445e-09
5.41487e-10 -0.00259015 -2.84092e-09
4.43102e-10 -0.00259015 -2.67682e-09
5.80636e-10 -0.00259015 -3.0272e-09
6.63485e-10 -0.00259015 -2.98322e-09
1.54234e-10 -0.00319511 -3.84671e-09
3.67409e-10 -0.00319511 -4.10212e-09
6.6888e-10 -0.00319511 -3.75952e-09
7.12095e-10 -0.00319511 -4.15582e-09
5.24532e-10 -0.00319511 -3.82284e-09
3.70183e-10 -0.00319511 -3.87004e-09
5.33215e-10 -0.00319511 -3.87147e-09
6.69067e-10 -0.00319511 -3.89212e-09
6.9169e-10 -0.00319511 -4.01365e-09
9.31697e-10 -0.00319511 -4.0781e-09
4.31827e-10 -0.00319511 -3.92288e-09
4.06512e-10 -0.00319511 -3.8709e-09
5.52091e-10 -0.00319511 -3.94186e-09
8.41874e-10 -0.00319511 -4.05016e-09
6.19888e-10 -0.00319511 -3.7559e-09
3.04043e-10 -0.00319511 -3.81133e-09
6.07926e-10 -0.00319511 -3.8479e-09
5.7879e-10 -0.00319511 -3.92586e-09
6.00862e-10 -0.00319511 -4.02198e-09
6.87407e-10 -0.00319511 -3.91424e-09
3.15189e-10 -0.00319511 -3.49118e-09
5.50173e-10 -0.00319511 -3.9421e-09
5.73124e-10 -0.0031951 -3.97754e-09
2.39675e-10 -0.00319511 -3.86153e-09
7.24217e-10 -0.00319511 -4.20216e-09
-1.61676e-10 -0.00360071 -5.392e-09
2.12442e-10 -0.00360071 -5.36259e-09
7.34933e-10 -0.00360071 -5.07089e-09
1.04941e-09 -0.00360071 -5.34477e-09
1.00266e-09 -0.00360071 -5.55372e-09
9.44276e-11 -0.00360071 -5.27312e-09
2.01566e-10 -0.00360071 -5.22743e-09
4.37836e-10 -0.00360071 -5.30387e-09
4.24481e-10 -0.00360071 -5.34431e-09
8.50105e-10 -0.00360071 -5.21533e-09
2.14451e-10 -0.00360071 -5.07509e-09
2.1161e-10 -0.00360071 -5.22657e-09
3.09205e-10 -0.00360071 -5.09348e-09
5.73681e-10 -0.00360071 -5.15298e-09
5.84109e-10 -0.00360071 -5.44786e-09
2.29461e-10 -0.00360071 -5.05091e-09
2.41411e-10 -0.00360071 -5.222e-09
2.67251e-10 -0.00360071 -5.3365e-09
4.00467e-10 -0.00360071 -5.38156e-09
5.72192e-10 -0.00360071 -5.03132e-09
-5.92408e-11 -0.00360071 -4.70157e-09
8.35946e-10 -0.00360071 -4.91701e-09
6.66091e-10 -0.00360071 -5.15329e-09
2.09263e-10 -0.0036007 -5.11802e-09
7.15261e-10 -0.00360071 -5.25849e-09
-9.56646e-10 -0.00378298 -6.4675e-09
-5.74818e-10 -0.00378298 -6.66799e-09
-6.15596e-12 -0.00378297 -7.02521e-09
2.38355e-10 -0.00378297 -7.06203e-09
9.19402e-10 -0.00378297 -6.46194e-09
-5.36616e-10 -0.00378298 -6.49928e-09
-2.78077e-10 -0.00378297 -6.66233e-09
-5.7212e-11 -0.00378297 -6.60005e-09
8.98637e-11 -0.00378297 -6.73254e-09
4.24651e-10 -0.00378297 -6.89143e-09
-5.96132e-10 -0.00378297 -6.5737e-09
-2.72682e-10 -0.00378297 -6.57676e-09
-7.29674e-11 -0.00378297 -6.51573e-09
-2.98215e-11 -0.00378297 -6.5375e-09
2.13198e-11 -0.00378297 -6.58225e-09
-2.82378e-10 -0.00378297 -6.56614e-09
-1.83287e-10 -0.00378297 -6.26671e-09
-3.57527e-11 -0.00378297 -6.48982e-09
4.47269e-11 -0.00378297 -6.33086e-09
-2.31171e-11 -0.00378297 -6.28969e-09
2.37664e-10 -0.00378297 -6.57985e-09
-2.47393e-10 -0.00378297 -6.35108e-09
-5.28263e-10 -0.00378297 -6.35263e-09
-6.25757e-11 -0.00378297 -6.69999e-09
4.52999e-10 -0.00378297 -6.13221e-09
-1.17421e-09 -0.00373237 -8.00939e-09
-9.65071e-10 -0.00373237 -7.89192e-09
-8.98177e-10 -0.00373237 -8.19857e-09
-6.62342e-10 -0.00373237 -8.05168e-09
-4.76756e-11 -0.00373237 -8.13941e-09
-1.16934e-09 -0.00373237 -7.88917e-09
-9.88133e-10 -0.00373237 -7.99949e-09
-9.02375e-10 -0.00373237 -8.24117e-09
-6.49607e-10 -0.00373237 -7.95426e-09
-1.24432e-10 -0.00373237 -7.88312e-09
-6.46682e-10 -0.00373237 -7.74433e-09
-8.82161e-10 -0.00373237 -7.97817e-09
-8.86799e-10 -0.00373237 -7.88679e-09
-6.35448e-10 -0.00373237 -7.93728e-09
-6.0349e-10 -0.00373237 -7.67062e-09
-1.07287e-09 -0.00373237 -7.7997e-09
-1.00449e-09 -0.00373237 -7.6884e-09
-8.51605e-10 -0.00373237 -7.82685e-09
-7.43559e-10 -0.00373237 -7.62437e-09
-5.75196e-10 -0.00373237 -7.5955e-09
-1.02089e-09 -0.00373237 -7.83208e-09
-8.25775e-10 -0.00373237 -7.72708e-09
-1.23893e-09 -0.00373237 -7.63463e-09
-8.61431e-10 -0.00373236 -7.65629e-09
-7.86798e-10 -0.00373236 -7.3962e-09
-2.27816e-09 -0.00345406 -8.92952e-09
-2.11298e-09 -0.00345406 -9.42668e-09
-1.74904e-09 -0.00345406 -9.14849e-09
-1.19507e-09 -0.00345406 -9.2202e-09
-1.23992e-09 -0.00345406 -9.22685e-09
-2.06126e-09 -0.00345406 -9.18783e-09
-1.86346e-09 -0.00345406 -9.2981e-09
-1.6247e-09 -0.00345406 -9.30209e-09
-1.30146e-09 -0.00345406 -9.23443e-09
-1.41113e-09 -0.00345406 -9.22516e-09
-1.81348e-09 -0.00345406 -9.10503e-09
-1.7811e-09 -0.00345406 -9.07889e-09
-1.68252e-09 -0.00345406 -9.40093e-09
-1.45056e-09 -0.00345406 -9.21403e-09
-1.31207e-09 -0.00345406 -8.98918e-09
-1.85593e-09 -0.00345406 -9.10434e-09
-1.59668e-09 -0.00345406 -9.12437e-09
-1.66036e-09 -0.00345406 -9.04447e-09
-1.61666e-09 -0.00345406 -9.17626e-09
-1.34705e-09 -0.00345406 -9.05673e-09
-1.16673e-09 -0.00345406 -8.69777e-09
-1.92461e-09 -0.00345406 -9.03164e-09
-1.62106e-09 -0.00345405 -9.21633e-09
-1.59347e-09 -0.00345406 -8.92033e-09
-1.34402e-09 -0.00345406 -9.05773e-09
-2.86716e-09 -0.00296688 -1.04627e-08
-2.75335e-09 -0.00296687 -1.02374e-08
-2.44254e-09 -0.00296687 -1.04714e-08
-2.17818e-09 -0.00296687 -1.02889e-08
-2.24371e-09 -0.00296687 -1.0294e-08
-3.07008e-09 -0.00296687 -1.0154e-08
-2.79807e-09 -0.00296688 -1.03202e-08
-2.50667e-09 -0.00296687 -1.04196e-08
-2.40907e-09 -0.00296687 -1.04556e-08
-2.19942e-09 -0.00296687 -1.03915e-08
-2.98173e-09 -0.00296687 -1.02438e-08
-2.76863e-09 -0.00296688 -1.03796e-08
-2.63153e-09 -0.00296687 -1.04634e-08
-2.39724e-09 -0.00296687 -1.02452e-08
-2.35663e-09 -0.00296687 -1.01961e-08
-2.95503e-09 -0.00296687 -1.02333e-08
-2.62038e-09 -0.00296687 -1.03302e-08
-2.66581e-09 -0.00296687 -1.04179e-08
-2.60099e-09 -0.00296687 -1.03577e-08
-2.40058e-09 -0.00296687 -1.02653e-08
-2.64723e-09 -0.00296688 -1.01698e-08
-2.6418e-09 -0.00296687 -1.02135e-08
-2.65723e-09 -0.00296687 -1.05655e-08
-2.7474e-09 -0.00296687 -1.02822e-08
-2.18237e-09 -0.00296687 -1.01727e-08
-3.80539e-09 -0.00230103 -1.12057e-08
-3.64147e-09 -0.00230103 -1.10227e-08
-3.45332e-09 -0.00230103 -1.10657e-08
-3.39299e-09 -0.00230103 -1.10214e-08
-3.37438e-09 -0.00230103 -1.1092e-08
-3.84783e-09 -0.00230103 -1.12435e-08
-3.7018e-09 -0.00230103 -1.11153e-08
-3.71636e-09 -0.00230103 -1.11407e-08
-3.51743e-09 -0.00230103 -1.11477e-08
-3.6072e-09 -0.00230103 -1.1002e-08
-3.99035e-09 -0.00230103 -1.12059e-08
-3.83482e-09 -0.00230103 -1.13152e-08
-3.6776e-09 -0.00230103 -1.11512e-08
-3.55731e-09 -0.00230103 -1.11902e-08
-3.57535e-09 -0.00230103 -1.10337e-08
-4.0095e-09 -0.00230103 -1.11558e-08
-3.84153e-09 -0.00230103 -1.11416e-08
-3.75806e-09 -0.00230103 -1.12407e-08
-3.65375e-09 -0.00230103 -1.11012e-08
-3.42425e-09 -0.00230103 -1.10182e-08
-3.36284e-09 -0.00230103 -1.08853e-08
-3.7351e-09 -0.00230103 -1.09827e-08
-3.92049e-09 -0.00230103 -1.1094e-08
-3.62425e-09 -0.00230103 -1.12645e-08
-3.15343e-09 -0.00230103 -1.0734e-08
-4.7445e-09 -0.00149461 -1.15216e-08
-4.89949e-09 -0.00149461 -1.15351e-08
-4.91454e-09 -0.00149461 -1.1548e-08
-4.93973e-09 -0.00149461 -1.14093e-08
-4.90511e-09 -0.00149461 -1.14411e-08
-5.04628e-09 -0.00149461 -1.16194e-08
-4.92974e-09 -0.00149461 -1.16595e-08
-4.8995e-09 -0.00149461 -1.15424e-08
-4.77767e-09 -0.00149461 -1.14862e-08
-4.79628e-09 -0.00149461 -1.14893e-08
-5.01123e-09 -0.00149461 -1.15889e-08
-5.01573e-09 -0.00149461 -1.16142e-08
-4.92931e-09 -0.00149461 -1.15885e-08
-4.77135e-09 -0.00149461 -1.14599e-08
-4.8354e-09 -0.00149461 -1.14636e-08
-5.00976e-09 -0.00149461 -1.15667e-08
-4.98889e-09 -0.00149461 -1.1622e-08
-4.97739e-09 -0.00149461 -1.15231e-08
-4.87416e-09 -0.00149461 -1.13824e-08
-4.66397e-09 -0.00149461 -1.13198e-08
-5.12228e-09 -0.00149461 -1.16092e-08
-4.98298e-09 -0.00149461 -1.16135e-08
-4.91143e-09 -0.00149461 -1.13562e-08
-4.80264e-09 -0.00149461 -1.14452e-08
-4.14362e-09 -0.00149461 -1.12031e-08
-6.20823e-09 -0.000589063 -1.14672e-08
-6.16315e-09 -0.000589062 -1.16027e-08
-6.1095e-09 -0.000589062 -1.14297e-08
-6.28977e-09 -0.000589063 -1.13609e-08
-6.12735e-09 -0.000589062 -1.17089e-08
-6.002e-09 -0.000589063 -1.15587e-08
-6.17924e-09 -0.000589063 -1.1559e-08
-6.172e-09 -0.000589063 -1.14714e-08
-6.14526e-09 -0.000589062 -1.1459e-08
-6.32404e-09 -0.000589063 -1.14121e-08
-6.15567e-09 -0.000589064 -1.16707e-08
-6.18545e-09 -0.000589063 -1.15817e-08
-6.15601e-09 -0.000589062 -1.14512e-08
-6.16804e-09 -0.000589063 -1.1371e-08
-6.18064e-09 -0.000589062 -1.13451e-08
-6.13819e-09 -0.000589063 -1.14865e-08
-6.18884e-09 -0.000589064 -1.14546e-08
-6.14069e-09 -0.000589064 -1.14158e-08
-6.19626e-09 -0.000589064 -1.12709e-08
-6.21379e-09 -0.000589063 -1.12071e-08
-6.12734e-09 -0.000589064 -1.14048e-08
-6.20389e-09 -0.000589064 -1.14264e-08
-6.24059e-09 -0.000589063 -1.13463e-08
-6.17427e-09 -0.000589065 -1.12928e-08
-6.43729e-09 -0.000589063 -1.11283e-08
-7.07321e-09 0.000375989 -1.0983e-08
-7.35619e-09 0.000375989 -1.09111e-08
-7.42825e-09 0.000375988 -1.07494e-08
-7.58099e-09 0.000375988 -1.09283e-08
-7.61601e-09 0.000375988 -1.08227e-08
-7.38082e-09 0.000375989 -1.08727e-08
-7.26954e-09 0.000375988 -1.08286e-08
-7.37479e-09 0.000375988 -1.09336e-08
-7.59879e-09 0.000375988 -1.08298e-08
-7.76016e-09 0.000375987 -1.08014e-08
-7.22709e-09 0.000375988 -1.08284e-08
-7.34183e-09 0.000375987 -1.09578e-08
-7.47854e-09 0.000375987 -1.08823e-08
-7.5873e-09 0.000375987 -1.08243e-08
-7.83442e-09 0.000375988 -1.07272e-08
-7.28934e-09 0.000375986 -1.08778e-08
-7.33361e-09 0.000375987 -1.08883e-08
-7.49155e-09 0.000375987 -1.07741e-08
-7.66623e-09 0.000375988 -1.07084e-08
-7.85746e-09 0.000375987 -1.07035e-08
-7.29563e-09 0.000375987 -1.07968e-08
-7.32019e-09 0.000375986 -1.07908e-08
-7.48678e-09 0.000375987 -1.08099e-08
-7.75013e-09 0.000375987 -1.06721e-08
-7.89328e-09 0.000375987 -1.07304e-08
-8.22321e-09 0.00136816 -9.56701e-09
-8.48471e-09 0.00136816 -9.61638e-09
-8.78348e-09 0.00136816 -9.78123e-09
-9.0676e-09 0.00136816 -9.65707e-09
-9.27807e-09 0.00136816 -9.71389e-09
-8.21034e-09 0.00136816 -9.74209e-09
-8.58737e-09 0.00136816 -9.6998e-09
-8.73484e-09 0.00136816 -9.77215e-09
-9.06289e-09 0.00136815 -9.70405e-09
-9.41607e-09 0.00136815 -9.69206e-09
-8.3089e-09 0.00136816 -9.72846e-09
-8.47726e-09 0.00136815 -9.78751e-09
-8.82151e-09 0.00136815 -9.68401e-09
-9.08822e-09 0.00136815 -9.74872e-09
-9.5249e-09 0.00136816 -9.72522e-09
-8.28801e-09 0.00136815 -9.66565e-09
-8.55553e-09 0.00136815 -9.7561e-09
-8.83541e-09 0.00136815 -9.68713e-09
-9.1851e-09 0.00136815 -9.65074e-09
-9.40112e-09 0.00136815 -9.6867e-09
-8.22467e-09 0.00136815 -9.62308e-09
-8.62481e-09 0.00136815 -9.67916e-09
-8.83935e-09 0.00136815 -9.67703e-09
-9.2499e-09 0.00136816 -9.68813e-09
-9.42888e-09 0.00136815 -9.64338e-09
-8.97947e-09 0.00236728 -8.02702e-09
-9.65595e-09 0.00236728 -8.06251e-09
-1.00761e-08 0.00236728 -7.91725e-09
-1.05357e-08 0.00236728 -8.06806e-09
-1.10149e-08 0.00236728 -8.01934e-09
-9.23712e-09 0.00236728 -7.8891e-09
-9.63623e-09 0.00236728 -7.9772e-09
-1.00437e-08 0.00236728 -7.98437e-09
-1.05265e-08 0.00236728 -8.05314e-09
-1.10284e-08 0.00236728 -8.02888e-09
-9.23894e-09 0.00236728 -7.9549e-09
-9.65551e-09 0.00236728 -8.03558e-09
-1.01458e-08 0.00236728 -8.03436e-09
-1.05686e-08 0.00236728 -8.00578e-09
-1.11175e-08 0.00236728 -8.1117e-09
-9.36203e-09 0.00236728 -7.95971e-09
-9.77339e-09 0.00236728 -8.0514e-09
-1.01223e-08 0.00236728 -8.03688e-09
-1.06126e-08 0.00236728 -8.10245e-09
-1.11356e-08 0.00236728 -8.0226e-09
-9.19105e-09 0.00236728 -8.00114e-09
-9.80049e-09 0.00236728 -7.94539e-09
-1.02047e-08 0.00236728 -7.97882e-09
-1.06477e-08 0.00236728 -8.107e-09
-1.11492e-08 0.00236728 -7.93005e-09
-1.02248e-08 0.00336932 -5.64606e-09
-1.07837e-08 0.00336932 -5.39576e-09
-1.13845e-08 0.00336932 -5.62079e-09
-1.2011e-08 0.00336932 -5.60561e-09
-1.24693e-08 0.00336932 -5.76611e-09
-1.02453e-08 0.00336932 -5.487e-09
-1.07772e-08 0.00336932 -5.70371e-09
-1.14261e-08 0.00336932 -5.66077e-09
-1.20073e-08 0.00336932 -5.76976e-09
-1.25364e-08 0.00336932 -5.66961e-09
-1.04226e-08 0.00336932 -5.61085e-09
-1.08056e-08 0.00336932 -5.6886e-09
-1.14143e-08 0.00336932 -5.79353e-09
-1.20283e-08 0.00336932 -5.76972e-09
-1.2524e-08 0.00336932 -5.51509e-09
-1.02007e-08 0.00336932 -5.62684e-09
-1.09307e-08 0.00336932 -5.58927e-09
-1.14389e-08 0.00336932 -5.70405e-09
-1.20476e-08 0.00336932 -5.6565e-09
-1.24085e-08 0.00336932 -5.65787e-09
-1.02997e-08 0.00336932 -5.58764e-09
-1.07169e-08 0.00336932 -5.88333e-09
-1.14964e-08 0.00336932 -5.64443e-09
-1.2007e-08 0.00336932 -5.72636e-09
-1.21594e-08 0.00336932 -5.65527e-09
-1.11765e-08 0.00438843 -2.82702e-09
-1.1909e-08 0.00438843 -3.00445e-09
-1.26779e-08 0.00438843 -3.01007e-09
-1.33574e-08 0.00438843 -3.0124e-09
-1.39418e-08 0.00438843 -2.76248e-09
-1.10545e-08 0.00438843 -2.78001e-09
-1.19987e-08 0.00438843 -2.92957e-09
-1.26958e-08 0.00438843 -2.93249e-09
-1.34348e-08 0.00438843 -2.86738e-09
-1.40412e-08 0.00438843 -2.88061e-09
-1.11699e-08 0.00438843 -2.93267e-09
-1.18881e-08 0.00438843 -2.75718e-09
-1.27651e-08 0.00438843 -2.81147e-09
-1.34402e-08 0.00438843 -3.08299e-09
-1.41829e-08 0.00438843 -2.85584e-09
-1.11683e-08 0.00438843 -2.78338e-09
-1.18908e-08 0.00438843 -2.90159e-09
-1.27413e-08 0.00438843 -2.95366e-09
-1.33999e-08 0.00438843 -2.88544e-09
-1.40845e-08 0.00438843 -2.8951e-09
-1.08013e-08 0.00438843 -2.71359e-09
-1.18618e-08 0.00438843 -2.86082e-09
-1.25385e-08 0.00438843 -3.00678e-09
-1.34046e-08 0.00438842 -3.07729e-09
-1.42217e-08 0.00438843 -2.854e-09
-1.22268e-08 0.00545644 3.21934e-10
-1.33038e-08 0.00545645 5.00018e-10
-1.37776e-08 0.00545644 3.13934e-10
-1.45912e-08 0.00545644 5.07797e-10
-1.51724e-08 0.00545644 4.35885e-10
-1.24041e-08 0.00545644 1.94504e-10
-1.29931e-08 0.00545644 1.90475e-10
-1.38402e-08 0.00545644 4.08559e-10
-1.47239e-08 0.00545644 3.06688e-10
-1.54316e-08 0.00545644 2.12997e-10
-1.20223e-08 0.00545644 2.18371e-10
-1.29521e-08 0.00545644 2.41123e-10
-1.38804e-08 0.00545644 2.45128e-10
-1.47611e-08 0.00545644 2.31847e-10
-1.51744e-08 0.00545644 3.69674e-10
-1.18155e-08 0.00545644 1.15105e-10
-1.3113e-08 0.00545644 2.36501e-10
-1.38282e-08 0.00545644 1.85515e-10
-1.46298e-08 0.00545644 1.93364e-10
-1.55688e-08 0.00545644 1.84605e-10
-1.17332e-08 0.00545644 2.08515e-10
-1.27485e-08 0.00545644 7.49512e-11
-1.37478e-08 0.00545644 1.78575e-10
-1.46266e-08 0.00545644 -8.753e-13
-1.53064e-08 0.00545644 1.38682e-10
-1.27077e-08 0.00661937 4.12487e-09
-1.42402e-08 0.00661937 3.85341e-09
-1.50971e-08 0.00661937 3.69278e-09
-1.54533e-08 0.00661937 3.54017e-09
-1.62811e-08 0.00661937 3.93801e-09
-1.31701e-08 0.00661937 3.68467e-09
-1.41636e-08 0.00661937 3.7251e-09
-1.47412e-08 0.00661937 3.62306e-09
-1.56074e-08 0.00661937 3.69115e-09
-1.6303e-08 0.00661937 3.69407e-09
-1.31921e-08 0.00661937 3.54899e-09
-1.4012e-08 0.00661937 3.4666e-09
-1.47572e-08 0.00661937 3.60665e-09
-1.56094e-08 0.00661937 3.54115e-09
-1.64929e-08 0.00661937 3.61892e-09
-1.30566e-08 0.00661937 3.50839e-09
-1.4031e-08 0.00661937 3.51261e-09
-1.48674e-08 0.00661937 3.64716e-09
-1.55509e-08 0.00661937 3.54199e-09
-1.62317e-08 0.00661937 3.58547e-09
-1.3073e-08 0.00661937 3.31396e-09
-1.38872e-08 0.00661937 3.72109e-09
-1.48869e-08 0.00661937 3.53527e-09
-1.57371e-08 0.00661937 3.40236e-09
-1.63205e-08 0.00661937 3.27197e-09
-1.43758e-08 0.00793059 7.25713e-09
-1.53065e-08 0.00793059 6.86419e-09
-1.59399e-08 0.00793059 7.39031e-09
-1.60217e-08 0.00793059 7.21965e-09
-1.76072e-08 0.00793059 7.4173e-09
-1.41501e-08 0.00793059 7.00895e-09
-1.50844e-08 0.00793059 7.12753e-09
-1.56208e-08 0.00793059 7.06392e-09
-1.64211e-08 0.00793059 7.04662e-09
-1.706e-08 0.00793059 7.01779e-09
-1.43498e-08 0.00793058 7.18817e-09
-1.48565e-08 0.00793059 6.93836e-09
-1.56231e-08 0.00793059 6.93514e-09
-1.64784e-08 0.00793059 7.01736e-09
-1.73027e-08 0.00793059 7.03291e-09
-1.41025e-08 0.00793059 6.50855e-09
-1.50919e-08 0.00793058 6.86289e-09
-1.57511e-08 0.00793059 6.97419e-09
-1.64601e-08 0.00793059 6.9347e-09
-1.72555e-08 0.00793059 6.79354e-09
-1.41242e-08 0.00793059 6.97967e-09
-1.50889e-08 0.00793059 7.02968e-09
-1.58525e-08 0.00793058 6.96087e-09
-1.68442e-08 0.00793059 6.80298e-09
-1.70469e-08 0.00793059 6.62599e-09
-1.54018e-08 0.00944106 1.01715e-08
-1.57356e-08 0.00944106 1.01078e-08
-1.61648e-08 0.00944107 1.02577e-08
-1.7178e-08 0.00944107 9.97413e-09
-1.78403e-08 0.00944106 1.03681e-08
-1.52946e-08 0.00944106 1.0112e-08
-1.60055e-08 0.00944106 1.01725e-08
-1.63078e-08 0.00944107 1.00822e-08
-1.71885e-08 0.00944107 1.0199e-08
-1.7317e-08 0.00944106 1.00346e-08
-1.50475e-08 0.00944106 1.02239e-08
-1.59935e-08 0.00944106 1.01865e-08
-1.64271e-08 0.00944107 1.01386e-08
-1.69694e-08 0.00944106 1.03873e-08
-1.81225e-08 0.00944106 1.00414e-08
-1.53026e-08 0.00944106 1.00889e-08
-1.59239e-08 0.00944107 9.97195e-09
-1.6655e-08 0.00944106 1.02445e-08
-1.73092e-08 0.00944106 9.99378e-09
-1.76667e-08 0.00944106 1.02676e-08
-1.53299e-08 0.00944106 1.02162e-08
-1.57714e-08 0.00944106 1.009e-08
-1.64169e-08 0.00944106 9.68437e-09
-1.73469e-08 0.00944106 1.03452e-08
-1.77551e-08 0.00944106 1.03291e-08
-1.57364e-08 0.0111876 1.25021e-08
-1.62749e-08 0.0111876 1.26918e-08
-1.71106e-08 0.0111876 1.27613e-08
-1.67966e-08 0.0111876 1.28775e-08
-1.78812e-08 0.0111876 1.31115e-08
-1.59443e-08 0.0111876 1.2855e-08
-1.6629e-08 0.0111876 1.27793e-08
-1.70768e-08 0.0111876 1.30646e-08