<?xml version="1.0"?>
<VTKFile type="UnstructuredGrid" version="0.1" byte_order="LittleEndian">
<UnstructuredGrid>
<Piece NumberOfPoints="1025" NumberOfCells="640">
<Points>
<DataArray type="Float32" NumberOfComponents="3" format="ascii">
0 0 0
0.025 0 0
0.05 0 0
0.075 0 0
0.1 0 0
0 0.025 0
0.025 0.025 0
0.05 0.025 0
0.075 0.025 0
0.1 0.025 0
0 0.05 0
0.025 0.05 0
0.05 0.05 0
0.075 0.05 0
0.1 0.05 0
0 0.075 0
0.025 0.075 0
0.05 0.075 0
0.075 0.075 0
0.1 0.075 0
0 0.1 0
0.025 0.1 0
0.05 0.1 0
0.075 0.1 0
0.1 0.1 0
0 0 0.025
0.025 0 0.025
0.05 0 0.025
0.075 0 0.025
0.1 0 0.025
0 0.025 0.025
0.025 0.025 0.025
0.05 0.025 0.025
0.075 0.025 0.025
0.1 0.025 0.025
0 0.05 0.025
0.025 0.05 0.025
0.05 0.05 0.025
0.075 0.05 0.025
0.1 0.05 0.025
0 0.075 0.025
0.025 0.075 0.025
0.05 0.075 0.025
0.075 0.075 0.025
0.1 0.075 0.025
0 0.1 0.025
0.025 0.1 0.025
0.05 0.1 0.025
0.075 0.1 0.025
0.1 0.1 0.025
0 0 0.05
0.025 0 0.05
0.05 0 0.05
0.075 0 0.05
0.1 0 0.05
0 0.025 0.05
0.025 0.025 0.05
0.05 0.025 0.05
0.075 0.025 0.05
0.1 0.025 0.05
0 0.05 0.05
0.025 0.05 0.05
0.05 0.05 0.05
0.075 0.05 0.05
0.1 0.05 0.05
0 0.075 0.05
0.025 0.075 0.05
0.05 0.075 0.05
0.075 0.075 0.05
0.1 0.075 0.05
0 0.1 0.05
0.025 0.1 0.05
0.05 0.1 0.05
0.075 0.1 0.05
0.1 0.1 0.05
0 0 0.075
0.025 0 0.075
0.05 0 0.075
0.075 0 0.075
0.1 0 0.075
0 0.025 0.075
0.025 0.025 0.075
0.05 0.025 0.075
0.075 0.025 0.075
0.1 0.025 0.075
0 0.05 0.075
0.025 0.05 0.075
0.05 0.05 0.075
0.075 0.05 0.075
0.1 0.05 0.075
0 0.075 0.075
0.025 0.075 0.075
0.05 0.075 0.075
0.075 0.075 0.075
0.1 0.075 0.075
0 0.1 0.075
0.025 0.1 0.075
0.05 0.1 0.075
0.075 0.1 0.075
0.1 0.1 0.075
0 0 0.1
0.025 0 0.1
0.05 0 0.1
0.075 0 0.1
0.1 0 0.1
0 0.025 0.1
0.025 0.025 0.1
0.05 0.025 0.1
0.075 0.025 0.1
0.1 0.025 0.1
0 0.05 0.1
0.025 0.05 0.1
0.05 0.05 0.1
0.075 0.05 0.1
0.1 0.05 0.1
0 0.075 0.1
0.025 0.075 0.1
0.05 0.075 0.1
0.075 0.075 0.1
0.1 0.075 0.1
0 0.1 0.1
0.025 0.1 0.1
0.05 0.1 0.1
0.075 0.1 0.1
0.1 0.1 0.1
0 0 0.125
0.025 0 0.125
0.05 0 0.125
0.075 0 0.125
0.1 0 0.125
0 0.025 0.125
0.025 0.025 0.125
0.05 0.025 0.125
0.075 0.025 0.125
0.1 0.025 0.125
0 0.05 0.125
0.025 0.05 0.125
0.05 0.05 0.125
0.075 0.05 0.125
0.1 0.05 0.125
0 0.075 0.125
0.025 0.075 0.125
0.05 0.075 0.125
0.075 0.075 0.125
0.1 0.075 0.125
0 0.1 0.125
0.025 0.1 0.125
0.05 0.1 0.125
0.075 0.1 0.125
0.1 0.1 0.125
0 0 0.15
0.025 0 0.15
0.05 0 0.15
0.075 0 0.15
0.1 0 0.15
0 0.025 0.15
0.025 0.025 0.15
0.05 0.025 0.15
0.075 0.025 0.15
0.1 0.025 0.15
0 0.05 0.15
0.025 0.05 0.15
0.05 0.05 0.15
0.075 0.05 0.15
0.1 0.05 0.15
0 0.075 0.15
0.025 0.075 0.15
0.05 0.075 0.15
0.075 0.075 0.15
0.1 0.075 0.15
0 0.1 0.15
0.025 0.1 0.15
0.05 0.1 0.15
0.075 0.1 0.15
0.1 0.1 0.15
0 0 0.175
0.025 0 0.175
0.05 0 0.175
0.075 0 0.175
0.1 0 0.175
0 0.025 0.175
0.025 0.025 0.175
0.05 0.025 0.175
0.075 0.025 0.175
0.1 0.025 0.175
0 0.05 0.175
0.025 0.05 0.175
0.05 0.05 0.175
0.075 0.05 0.175
0.1 0.05 0.175
0 0.075 0.175
0.025 0.075 0.175
0.05 0.075 0.175
0.075 0.075 0.175
0.1 0.075 0.175
0 0.1 0.175
0.025 0.1 0.175
0.05 0.1 0.175
0.075 0.1 0.175
0.1 0.1 0.175
0 0 0.2
0.025 0 0.2
0.05 0 0.2
0.075 0 0.2
0.1 0 0.2
0 0.025 0.2
0.025 0.025 0.2
0.05 0.025 0.2
0.075 0.025 0.2
0.1 0.025 0.2
0 0.05 0.2
0.025 0.05 0.2
0.05 0.05 0.2
0.075 0.05 0.2
0.1 0.05 0.2
0 0.075 0.2
0.025 0.075 0.2
0.05 0.075 0.2
0.075 0.075 0.2
0.1 0.075 0.2
0 0.1 0.2
0.025 0.1 0.2
0.05 0.1 0.2
0.075 0.1 0.2
0.1 0.1 0.2
0 0 0.225
0.025 0 0.225
0.05 0 0.225
0.075 0 0.225
0.1 0 0.225
0 0.025 0.225
0.025 0.025 0.225
0.05 0.025 0.225
0.075 0.025 0.225
0.1 0.025 0.225
0 0.05 0.225
0.025 0.05 0.225
0.05 0.05 0.225
0.075 0.05 0.225
0.1 0.05 0.225
0 0.075 0.225
0.025 0.075 0.225
0.05 0.075 0.225
0.075 0.075 0.225
0.1 0.075 0.225
0 0.1 0.225
0.025 0.1 0.225
0.05 0.1 0.225
0.075 0.1 0.225
0.1 0.1 0.225
0 0 0.25
0.025 0 0.25
0.05 0 0.25
0.075 0 0.25
0.1 0 0.25
0 0.025 0.25
0.025 0.025 0.25
0.05 0.025 0.25
0.075 0.025 0.25
0.1 0.025 0.25
0 0.05 0.25
0.025 0.05 0.25
0.05 0.05 0.25
0.075 0.05 0.25
0.1 0.05 0.25
0 0.075 0.25
0.025 0.075 0.25
0.05 0.075 0.25
0.075 0.075 0.25
0.1 0.075 0.25
0 0.1 0.25
0.025 0.1 0.25
0.05 0.1 0.25
0.075 0.1 0.25
0.1 0.1 0.25
0 0 0.275
0.025 0 0.275
0.05 0 0.275
0.075 0 0.275
0.1 0 0.275
0 0.025 0.275
0.025 0.025 0.275
0.05 0.025 0.275
0.075 0.025 0.275
0.1 0.025 0.275
0 0.05 0.275
0.025 0.05 0.275
0.05 0.05 0.275
0.075 0.05 0.275
0.1 0.05 0.275
0 0.075 0.275
0.025 0.075 0.275
0.05 0.075 0.275
0.075 0.075 0.275
0.1 0.075 0.275
0 0.1 0.275
0.025 0.1 0.275
0.05 0.1 0.275
0.075 0.1 0.275
0.1 0.1 0.275
0 0 0.3
0.025 0 0.3
0.05 0 0.3
0.075 0 0.3
0.1 0 0.3
0 0.025 0.3
0.025 0.025 0.3
0.05 0.025 0.3
0.075 0.025 0.3
0.1 0.025 0.3
0 0.05 0.3
0.025 0.05 0.3
0.05 0.05 0.3
0.075 0.05 0.3
0.1 0.05 0.3
0 0.075 0.3
0.025 0.075 0.3
0.05 0.075 0.3
0.075 0.075 0.3
0.1 0.075 0.3
0 0.1 0.3
0.025 0.1 0.3
0.05 0.1 0.3
0.075 0.1 0.3
0.1 0.1 0.3
0 0 0.325
0.025 0 0.325
0.05 0 0.325
0.075 0 0.325
0.1 0 0.325
0 0.025 0.325
0.025 0.025 0.325
0.05 0.025 0.325
0.075 0.025 0.325
0.1 0.025 0.325
0 0.05 0.325
0.025 0.05 0.325
0.05 0.05 0.325
0.075 0.05 0.325
0.1 0.05 0.325
0 0.075 0.325
0.025 0.075 0.325
0.05 0.075 0.325
0.075 0.075 0.325
0.1 0.075 0.325
0 0.1 0.325
0.025 0.1 0.325
0.05 0.1 0.325
0.075 0.1 0.325
0.1 0.1 0.325
0 0 0.35
0.025 0 0.35
0.05 0 0.35
0.075 0 0.35
0.1 0 0.35
0 0.025 0.35
0.025 0.025 0.35
0.05 0.025 0.35
0.075 0.025 0.35
0.1 0.025 0.35
0 0.05 0.35
0.025 0.05 0.35
0.05 0.05 0.35
0.075 0.05 0.35
0.1 0.05 0.35
0 0.075 0.35
0.025 0.075 0.35
0.05 0.075 0.35
0.075 0.075 0.35
0.1 0.075 0.35
0 0.1 0.35
0.025 0.1 0.35
0.05 0.1 0.35
0.075 0.1 0.35
0.1 0.1 0.35
0 0 0.375
0.025 0 0.375
0.05 0 0.375
0.075 0 0.375
0.1 0 0.375
0 0.025 0.375
0.025 0.025 0.375
0.05 0.025 0.375
0.075 0.025 0.375
0.1 0.025 0.375
0 0.05 0.375
0.025 0.05 0.375
0.05 0.05 0.375
0.075 0.05 0.375
0.1 0.05 0.375
0 0.075 0.375
0.025 0.075 0.375
0.05 0.075 0.375
0.075 0.075 0.375
0.1 0.075 0.375
0 0.1 0.375
0.025 0.1 0.375
0.05 0.1 0.375
0.075 0.1 0.375
0.1 0.1 0.375
0 0 0.4
0.025 0 0.4
0.05 0 0.4
0.075 0 0.4
0.1 0 0.4
0 0.025 0.4
0.025 0.025 0.4
0.05 0.025 0.4
0.075 0.025 0.4
0.1 0.025 0.4
0 0.05 0.4
0.025 0.05 0.4
0.05 0.05 0.4
0.075 0.05 0.4
0.1 0.05 0.4
0 0.075 0.4
0.025 0.075 0.4
0.05 0.075 0.4
0.075 0.075 0.4
0.1 0.075 0.4
0 0.1 0.4
0.025 0.1 0.4
0.05 0.1 0.4
0.075 0.1 0.4
0.1 0.1 0.4
0 0 0.425
0.025 0 0.425
0.05 0 0.425
0.075 0 0.425
0.1 0 0.425
0 0.025 0.425
0.025 0.025 0.425
0.05 0.025 0.425
0.075 0.025 0.425
0.1 0.025 0.425
0 0.05 0.425
0.025 0.05 0.425
0.05 0.05 0.425
0.075 0.05 0.425
0.1 0.05 0.425
0 0.075 0.425
0.025 0.075 0.425
0.05 0.075 0.425
0.075 0.075 0.425
0.1 0.075 0.425
0 0.1 0.425
0.025 0.1 0.425
0.05 0.1 0.425
0.075 0.1 0.425
0.1 0.1 0.425
0 0 0.45
0.025 0 0.45
0.05 0 0.45
0.075 0 0.45
0.1 0 0.45
0 0.025 0.45
0.025 0.025 0.45
0.05 0.025 0.45
0.075 0.025 0.45
0.1 0.025 0.45
0 0.05 0.45
0.025 0.05 0.45
0.05 0.05 0.45
0.075 0.05 0.45
0.1 0.05 0.45
0 0.075 0.45
0.025 0.075 0.45
0.05 0.075 0.45
0.075 0.075 0.45
0.1 0.075 0.45
0 0.1 0.45
0.025 0.1 0.45
0.05 0.1 0.45
0.075 0.1 0.45
0.1 0.1 0.45
0 0 0.475
0.025 0 0.475
0.05 0 0.475
0.075 0 0.475
0.1 0 0.475
0 0.025 0.475
0.025 0.025 0.475
0.05 0.025 0.475
0.075 0.025 0.475
0.1 0.025 0.475
0 0.05 0.475
0.025 0.05 0.475
0.05 0.05 0.475
0.075 0.05 0.475
0.1 0.05 0.475
0 0.075 0.475
0.025 0.075 0.475
0.05 0.075 0.475
0.075 0.075 0.475
0.1 0.075 0.475
0 0.1 0.475
0.025 0.1 0.475
0.05 0.1 0.475
0.075 0.1 0.475
0.1 0.1 0.475
0 0 0.5
0.025 0 0.5
0.05 0 0.5
0.075 0 0.5
0.1 0 0.5
0 0.025 0.5
0.025 0.025 0.5
0.05 0.025 0.5
0.075 0.025 0.5
0.1 0.025 0.5
0 0.05 0.5
0.025 0.05 0.5
0.05 0.05 0.5
0.075 0.05 0.5
0.1 0.05 0.5
0 0.075 0.5
0.025 0.075 0.5
0.05 0.075 0.5
0.075 0.075 0.5
0.1 0.075 0.5
0 0.1 0.5
0.025 0.1 0.5
0.05 0.1 0.5
0.075 0.1 0.5
0.1 0.1 0.5
0 0 0.525
0.025 0 0.525
0.05 0 0.525
0.075 0 0.525
0.1 0 0.525
0 0.025 0.525
0.025 0.025 0.525
0.05 0.025 0.525
0.075 0.025 0.525
0.1 0.025 0.525
0 0.05 0.525
0.025 0.05 0.525
0.05 0.05 0.525
0.075 0.05 0.525
0.1 0.05 0.525
0 0.075 0.525
0.025 0.075 0.525
0.05 0.075 0.525
0.075 0.075 0.525
0.1 0.075 0.525
0 0.1 0.525
0.025 0.1 0.525
0.05 0.1 0.525
0.075 0.1 0.525
0.1 0.1 0.525
0 0 0.55
0.025 0 0.55
0.05 0 0.55
0.075 0 0.55
0.1 0 0.55
0 0.025 0.55
0.025 0.025 0.55
0.05 0.025 0.55
0.075 0.025 0.55
0.1 0.025 0.55
0 0.05 0.55
0.025 0.05 0.55
0.05 0.05 0.55
0.075 0.05 0.55
0.1 0.05 0.55
0 0.075 0.55
0.025 0.075 0.55
0.05 0.075 0.55
0.075 0.075 0.55
0.1 0.075 0.55
0 0.1 0.55
0.025 0.1 0.55
0.05 0.1 0.55
0.075 0.1 0.55
0.1 0.1 0.55
0 0 0.575
0.025 0 0.575
0.05 0 0.575
0.075 0 0.575
0.1 0 0.575
0 0.025 0.575
0.025 0.025 0.575
0.05 0.025 0.575
0.075 0.025 0.575
0.1 0.025 0.575
0 0.05 0.575
0.025 0.05 0.575
0.05 0.05 0.575
0.075 0.05 0.575
0.1 0.05 0.575
0 0.075 0.575
0.025 0.075 0.575
0.05 0.075 0.575
0.075 0.075 0.575
0.1 0.075 0.575
0 0.1 0.575
0.025 0.1 0.575
0.05 0.1 0.575
0.075 0.1 0.575
0.1 0.1 0.575
0 0 0.6
0.025 0 0.6
0.05 0 0.6
0.075 0 0.6
0.1 0 0.6
0 0.025 0.6
0.025 0.025 0.6
0.05 0.025 0.6
0.075 0.025 0.6
0.1 0.025 0.6
0 0.05 0.6
0.025 0.05 0.6
0.05 0.05 0.6
0.075 0.05 0.6
0.1 0.05 0.6
0 0.075 0.6
0.025 0.075 0.6
0.05 0.075 0.6
0.075 0.075 0.6
0.1 0.075 0.6
0 0.1 0.6
0.025 0.1 0.6
0.05 0.1 0.6
0.075 0.1 0.6
0.1 0.1 0.6
0 0 0.625
0.025 0 0.625
0.05 0 0.625
0.075 0 0.625
0.1 0 0.625
0 0.025 0.625
0.025 0.025 0.625
0.05 0.025 0.625
0.075 0.025 0.625
0.1 0.025 0.625
0 0.05 0.625
0.025 0.05 0.625
0.05 0.05 0.625
0.075 0.05 0.625
0.1 0.05 0.625
0 0.075 0.625
0.025 0.075 0.625
0.05 0.075 0.625
0.075 0.075 0.625
0.1 0.075 0.625
0 0.1 0.625
0.025 0.1 0.625
0.05 0.1 0.625
0.075 0.1 0.625
0.1 0.1 0.625
0 0 0.65
0.025 0 0.65
0.05 0 0.65
0.075 0 0.65
0.1 0 0.65
0 0.025 0.65
0.025 0.025 0.65
0.05 0.025 0.65
0.075 0.025 0.65
0.1 0.025 0.65
0 0.05 0.65
0.025 0.05 0.65
0.05 0.05 0.65
0.075 0.05 0.65
0.1 0.05 0.65
0 0.075 0.65
0.025 0.075 0.65
0.05 0.075 0.65
0.075 0.075 0.65
0.1 0.075 0.65
0 0.1 0.65
0.025 0.1 0.65
0.05 0.1 0.65
0.075 0.1 0.65
0.1 0.1 0.65
0 0 0.675
0.025 0 0.675
0.05 0 0.675
0.075 0 0.675
0.1 0 0.675
[...]
<PointData Vectors="Displacement">
<DataArray type="Float32" Name="Displacement" NumberOfComponents="3" format="ascii">
0 0 0
0 0 0
0 0 0
0 0 0
0 0 0
0 0 0
0 0 0
0 0 0
0 0 0
0 0 0
0 0 0
0 0 0
0 0 0
0 0 0
0 0 0
0 0 0
0 0 0
0 0 0
0 0 0
0 0 0
0 0 0
0 0 0
0 0 0
0 0 0
0 0 0
7.13929e-10 0.00107609 1.46347e-09
4.34694e-10 0.00107609 1.47251e-09
2.76954e-10 0.00107609 1.4695e-09
1.1112e-10 0.00107609 1.50089e-09
-1.58501e-10 0.00107609 1.4766e-09
7.08471e-10 0.00107609 1.46353e-09
4.36455e-10 0.00107609 1.46507e-09
2.81799e-10 0.00107609 1.47172e-09
1.14098e-10 0.00107609 1.47739e-09
-1.55664e-10 0.00107609 1.48791e-09
7.05041e-10 0.00107609 1.45453e-09
4.29356e-10 0.00107609 1.44852e-09
2.75548e-10 0.00107609 1.45661e-09
1.19845e-10 0.00107609 1.48083e-09
-1.64909e-10 0.00107609 1.47037e-09
7.13512e-10 0.00107609 1.47002e-09
4.32784e-10 0.00107609 1.45788e-09
2.80156e-10 0.00107609 1.46993e-09
1.06862e-10 0.00107609 1.4721e-09
-1.83541e-10 0.00107609 1.4835e-09
7.12034e-10 0.00107609 1.47593e-09
4.35361e-10 0.00107609 1.47142e-09
2.8416e-10 0.00107609 1.47628e-09
1.02251e-10 0.00107609 1.49039e-09
-1.54913e-10 0.00107609 1.50277e-09
1.08088e-09 0.00215351 2.94772e-09
7.96464e-10 0.00215351 2.98311e-09
5.49243e-10 0.00215351 3.01635e-09
2.8571e-10 0.00215351 2.96691e-09
5.51696e-11 0.00215351 2.98482e-09
1.01979e-09 0.00215351 2.96841e-09
8.05977e-10 0.00215351 2.97044e-09
5.47149e-10 0.00215351 2.99322e-09
3.01823e-10 0.00215351 2.99332e-09
2.06803e-11 0.00215351 2.9862e-09
1.05441e-09 0.00215351 2.95532e-09
7.89028e-10 0.00215351 2.95713e-09
5.402e-10 0.00215351 2.96646e-09
2.79486e-10 0.00215351 2.98685e-09
6.20235e-11 0.00215351 3.01093e-09
1.08186e-09 0.00215351 2.96465e-09
7.68716e-10 0.00215351 2.95767e-09
5.46589e-10 0.00215351 2.97186e-09
2.73472e-10 0.00215351 2.98688e-09
-7.48646e-12 0.00215351 2.9723e-09
1.08766e-09 0.00215351 2.98443e-09
7.9325e-10 0.00215351 2.96538e-09
5.17039e-10 0.00215351 2.9692e-09
2.74799e-10 0.00215351 2.98403e-09
-4.23985e-11 0.00215351 2.98105e-09
1.33352e-09 0.00323354 4.47493e-09
1.10891e-09 0.00323354 4.47449e-09
7.52044e-10 0.00323354 4.43693e-09
4.96453e-10 0.00323354 4.48415e-09
3.54519e-10 0.00323354 4.5135e-09
1.34107e-09 0.00323354 4.47294e-09
1.06382e-09 0.00323354 4.44269e-09
8.07287e-10 0.00323354 4.46445e-09
5.02599e-10 0.00323354 4.48682e-09
3.04714e-10 0.00323354 4.48459e-09
1.30359e-09 0.00323354 4.42474e-09
1.05186e-09 0.00323354 4.45455e-09
7.90688e-10 0.00323354 4.4464e-09
5.37499e-10 0.00323354 4.4829e-09
2.51188e-10 0.00323354 4.48848e-09
1.33612e-09 0.00323354 4.42363e-09
1.04749e-09 0.00323354 4.4233e-09
7.69562e-10 0.00323354 4.4536e-09
5.04585e-10 0.00323354 4.45233e-09
2.23827e-10 0.00323354 4.45488e-09
1.34315e-09 0.00323354 4.41834e-09
1.04126e-09 0.00323354 4.41073e-09
7.75015e-10 0.00323354 4.43841e-09
4.45081e-10 0.00323354 4.47308e-09
2.20441e-10 0.00323354 4.42424e-09
1.56307e-09 0.00431738 5.84578e-09
1.25908e-09 0.00431738 5.78983e-09
1.05078e-09 0.00431737 5.84288e-09
7.49048e-10 0.00431737 5.91549e-09
5.61821e-10 0.00431737 5.90647e-09
1.50335e-09 0.00431738 5.83511e-09
1.25515e-09 0.00431738 5.80829e-09
1.01707e-09 0.00431737 5.82152e-09
7.47384e-10 0.00431737 5.88245e-09
5.54672e-10 0.00431737 5.87398e-09
1.45835e-09 0.00431738 5.80296e-09
1.26321e-09 0.00431737 5.82019e-09
1.03058e-09 0.00431737 5.80157e-09
7.43143e-10 0.00431737 5.85422e-09
5.50915e-10 0.00431737 5.84963e-09
1.47305e-09 0.00431737 5.82052e-09
1.2585e-09 0.00431737 5.82545e-09
9.92995e-10 0.00431737 5.8127e-09
7.39337e-10 0.00431737 5.83733e-09
5.14509e-10 0.00431737 5.83447e-09
1.54567e-09 0.00431737 5.83958e-09
1.26214e-09 0.00431737 5.77426e-09
9.86566e-10 0.00431737 5.78616e-09
7.19901e-10 0.00431737 5.81848e-09
4.60408e-10 0.00431737 5.74722e-09
1.63259e-09 0.00540612 7.04626e-09
1.41962e-09 0.00540612 7.10394e-09
1.2077e-09 0.00540612 7.02132e-09
9.61522e-10 0.00540612 7.12804e-09
8.71231e-10 0.00540612 7.13179e-09
1.58736e-09 0.00540612 7.0403e-09
1.40886e-09 0.00540612 7.0974e-09
1.23137e-09 0.00540612 7.06729e-09
9.5004e-10 0.00540612 7.11195e-09
7.19098e-10 0.00540612 7.12139e-09
1.62682e-09 0.00540612 7.03706e-09
1.38816e-09 0.00540612 7.07776e-09
1.24219e-09 0.00540612 7.10193e-09
9.62555e-10 0.00540612 7.12818e-09
7.32008e-10 0.00540612 7.10488e-09
1.60644e-09 0.00540612 7.11476e-09
1.44511e-09 0.00540612 7.07767e-09
1.19812e-09 0.00540612 7.15858e-09
9.39485e-10 0.00540612 7.08982e-09
7.77572e-10 0.00540612 7.10927e-09
1.70163e-09 0.00540612 7.09088e-09
1.44799e-09 0.00540612 7.1494e-09
1.18222e-09 0.00540612 7.06036e-09
9.08138e-10 0.00540612 7.08828e-09
9.34848e-10 0.00540612 7.12245e-09
1.65391e-09 0.00650079 8.11502e-09
1.43142e-09 0.00650078 8.16447e-09
1.38803e-09 0.00650079 8.11203e-09
1.14387e-09 0.00650078 8.15087e-09
1.14665e-09 0.00650078 8.23682e-09
1.71346e-09 0.00650079 8.1361e-09
1.52267e-09 0.00650078 8.12211e-09
1.40146e-09 0.00650078 8.15749e-09
1.21028e-09 0.00650078 8.14359e-09
1.00942e-09 0.00650078 8.19909e-09
1.64541e-09 0.00650078 8.16972e-09
1.56191e-09 0.00650078 8.18025e-09
1.40293e-09 0.00650078 8.11641e-09
1.20804e-09 0.00650078 8.18437e-09
9.07842e-10 0.00650078 8.11905e-09
1.79674e-09 0.00650078 8.09721e-09
1.56518e-09 0.00650078 8.15366e-09
1.36953e-09 0.00650078 8.21884e-09
1.13407e-09 0.00650078 8.17893e-09
1.04177e-09 0.00650078 8.23048e-09
1.84811e-09 0.00650078 8.1667e-09
1.55622e-09 0.00650078 8.12254e-09
1.35102e-09 0.00650078 8.25037e-09
1.07722e-09 0.00650078 8.27495e-09
1.10567e-09 0.00650078 8.156e-09
1.62267e-09 0.00760231 9.10666e-09
1.68658e-09 0.0076023 8.98925e-09
1.53866e-09 0.0076023 9.16865e-09
1.51812e-09 0.0076023 8.96207e-09
1.26209e-09 0.0076023 9.04762e-09
1.66088e-09 0.0076023 9.02752e-09
1.62528e-09 0.0076023 9.03548e-09
1.54602e-09 0.0076023 9.01936e-09
1.45731e-09 0.0076023 9.06485e-09
1.19675e-09 0.0076023 9.0026e-09
1.80992e-09 0.0076023 9.09134e-09
1.6206e-09 0.0076023 9.0155e-09
1.52289e-09 0.0076023 9.08987e-09
1.37642e-09 0.0076023 9.01784e-09
1.33238e-09 0.0076023 9.00819e-09
1.69542e-09 0.0076023 8.98507e-09
1.65985e-09 0.0076023 9.01337e-09
1.48861e-09 0.0076023 8.9741e-09
1.36374e-09 0.0076023 9.11056e-09
1.15655e-09 0.0076023 8.99739e-09
1.64826e-09 0.0076023 8.98752e-09
1.6841e-09 0.0076023 8.99476e-09
1.54994e-09 0.0076023 8.99827e-09
1.32623e-09 0.0076023 9.0724e-09
1.24717e-09 0.0076023 9.13181e-09
1.82963e-09 0.00871159 9.66741e-09
1.66906e-09 0.00871159 9.68863e-09
1.70743e-09 0.00871159 9.6067e-09
1.4829e-09 0.00871159 9.61177e-09
1.74011e-09 0.00871159 9.54357e-09
1.78601e-09 0.00871159 9.69902e-09
1.71665e-09 0.00871159 9.71193e-09
1.62555e-09 0.00871159 9.71247e-09
1.50787e-09 0.00871159 9.68118e-09
1.63086e-09 0.00871159 9.5816e-09
1.63986e-09 0.00871159 9.60778e-09
1.67167e-09 0.00871159 9.69707e-09
1.66129e-09 0.00871159 9.59693e-09
1.44897e-09 0.00871159 9.62906e-09
1.58252e-09 0.00871159 9.68444e-09
1.7585e-09 0.00871159 9.6559e-09
1.64895e-09 0.00871159 9.67774e-09
1.62987e-09 0.00871159 9.69558e-09
1.46786e-09 0.00871159 9.71048e-09
1.42487e-09 0.00871159 9.7298e-09
1.98114e-09 0.00871159 9.60677e-09
1.5572e-09 0.00871159 9.66058e-09
1.65613e-09 0.00871159 9.55906e-09
1.43183e-09 0.00871159 9.72298e-09
1.45596e-09 0.00871159 9.73575e-09
1.71552e-09 0.00982957 9.87381e-09
1.72296e-09 0.00982957 9.87306e-09
1.75783e-09 0.00982957 9.92346e-09
1.67285e-09 0.00982957 9.82046e-09
1.72638e-09 0.00982957 9.84861e-09
1.81559e-09 0.00982957 9.91268e-09
1.6754e-09 0.00982957 9.94981e-09
1.69111e-09 0.00982957 9.88636e-09
1.66667e-09 0.00982957 9.85476e-09
1.64948e-09 0.00982957 9.78306e-09
1.67098e-09 0.00982957 9.90568e-09
1.66113e-09 0.00982957 9.93318e-09
1.70241e-09 0.00982957 9.9458e-09
1.65782e-09 0.00982957 9.93839e-09
1.69785e-09 0.00982957 1.00536e-08
1.66085e-09 0.00982957 9.85371e-09
1.69545e-09 0.00982957 1.0008e-08
1.70403e-09 0.00982957 9.98026e-09
1.62641e-09 0.00982957 1.00858e-08
1.60085e-09 0.00982957 1.00573e-08
1.64215e-09 0.00982957 9.83448e-09
1.78386e-09 0.00982957 9.79903e-09
1.68201e-09 0.00982957 1.00611e-08
1.62532e-09 0.00982957 1.00316e-08
1.44431e-09 0.00982957 1.00701e-08
1.4313e-09 0.0109572 1.00798e-08
1.78169e-09 0.0109572 9.97661e-09
1.71985e-09 0.0109572 9.75061e-09
1.80116e-09 0.0109572 9.73684e-09
2.15617e-09 0.0109572 9.96638e-09
1.49556e-09 0.0109572 9.97588e-09
1.65119e-09 0.0109572 9.91299e-09
1.79976e-09 0.0109572 9.79099e-09
1.80256e-09 0.0109572 9.89635e-09
1.96604e-09 0.0109572 9.86418e-09
1.48535e-09 0.0109572 9.89487e-09
1.64593e-09 0.0109572 1.00466e-08
1.68057e-09 0.0109572 1.00547e-08
1.78401e-09 0.0109572 1.00336e-08
1.91439e-09 0.0109572 9.92035e-09
1.55384e-09 0.0109572 9.91528e-09
1.67279e-09 0.0109572 9.9184e-09
1.79523e-09 0.0109572 1.00468e-08
1.76236e-09 0.0109572 1.00028e-08
1.68759e-09 0.0109572 1.00154e-08
1.75818e-09 0.0109572 9.97033e-09
1.65954e-09 0.0109572 9.96425e-09
1.93483e-09 0.0109572 9.92697e-09
1.61623e-09 0.0109572 1.01141e-08
1.92719e-09 0.0109572 1e-08
1.72553e-09 0.0120953 9.90361e-09
1.55416e-09 0.0120953 9.78123e-09
1.86523e-09 0.0120953 9.69287e-09
2.06667e-09 0.0120953 9.78633e-09
1.93893e-09 0.0120953 9.8738e-09
1.37984e-09 0.0120953 9.78292e-09
1.57705e-09 0.0120953 9.71999e-09
1.79563e-09 0.0120953 9.72062e-09
1.96363e-09 0.0120953 9.69048e-09
2.23972e-09 0.0120953 9.79954e-09
1.32302e-09 0.0120953 9.79614e-09
1.6692e-09 0.0120953 9.74766e-09
1.77409e-09 0.0120953 9.7168e-09
1.88883e-09 0.0120953 9.72952e-09
2.15509e-09 0.0120953 9.69823e-09
1.42642e-09 0.0120953 9.72981e-09
1.60701e-09 0.0120953 9.7969e-09
1.73168e-09 0.0120953 9.73508e-09
1.83353e-09 0.0120953 9.76737e-09
2.02102e-09 0.0120953 9.7996e-09
1.32416e-09 0.0120953 9.84366e-09
1.6373e-09 0.0120953 9.80564e-09
1.71346e-09 0.0120953 9.6895e-09
1.99079e-09 0.0120953 9.74079e-09
1.84037e-09 0.0120953 9.68747e-09
1.13764e-09 0.0132449 9.16676e-09
1.64505e-09 0.0132449 9.3036e-09
1.79537e-09 0.0132449 9.50472e-09
2.05745e-09 0.0132448 9.05923e-09
2.18752e-09 0.0132448 9.09437e-09
1.38224e-09 0.0132449 9.38491e-09
1.5541e-09 0.0132449 9.31225e-09
1.83177e-09 0.0132449 9.23328e-09
1.98096e-09 0.0132448 9.11673e-09
2.31511e-09 0.0132449 9.1116e-09
1.30868e-09 0.0132449 9.30396e-09
1.46239e-09 0.0132449 9.21666e-09
1.85702e-09 0.0132449 9.07417e-09
1.94676e-09 0.0132448 9.16462e-09
2.31167e-09 0.0132448 9.16501e-09
1.33826e-09 0.0132449 9.27857e-09
1.43159e-09 0.0132448 9.27338e-09
1.83323e-09 0.0132448 9.23183e-09
1.95738e-09 0.0132448 9.20473e-09
2.15418e-09 0.0132448 9.15889e-09
1.50356e-09 0.0132449 9.16918e-09
1.40403e-09 0.0132448 9.16025e-09
1.6902e-09 0.0132448 9.11144e-09
1.91288e-09 0.0132448 9.30072e-09
1.86548e-09 0.0132448 9.07558e-09
1.04522e-09 0.0144064 8.45763e-09
1.59707e-09 0.0144064 8.3819e-09
1.80297e-09 0.0144064 8.28113e-09
1.88413e-09 0.0144064 8.0679e-09
2.50248e-09 0.0144064 8.18892e-09
1.21947e-09 0.0144064 8.39412e-09
1.39999e-09 0.0144064 8.40373e-09
1.7581e-09 0.0144064 8.24186e-09
2.10192e-09 0.0144064 8.25803e-09
2.39463e-09 0.0144064 8.31187e-09
1.06349e-09 0.0144064 8.33376e-09
1.41816e-09 0.0144064 8.36673e-09
1.85111e-09 0.0144064 8.38449e-09
2.25619e-09 0.0144064 8.29037e-09
2.28212e-09 0.0144064 8.23585e-09
9.35146e-10 0.0144064 8.4202e-09
1.48938e-09 0.0144064 8.35213e-09
1.94545e-09 0.0144064 8.4095e-09
2.07498e-09 0.0144064 8.28698e-09
2.25703e-09 0.0144064 8.26124e-09
9.1983e-10 0.0144064 8.60341e-09
1.59875e-09 0.0144064 8.42357e-09
1.89349e-09 0.0144064 8.5713e-09
2.16238e-09 0.0144064 8.34195e-09
2.50483e-09 0.0144064 8.3282e-09
1.68219e-09 0.0155805 7.0957e-09
1.54798e-09 0.0155805 7.16799e-09
1.73963e-09 0.0155805 7.02517e-09
2.08973e-09 0.0155805 7.12502e-09
2.21846e-09 0.0155805 7.18782e-09
1.1994e-09 0.0155805 7.19234e-09
1.45155e-09 0.0155805 7.13883e-09
1.85186e-09 0.0155805 7.15534e-09
2.12202e-09 0.0155805 7.02367e-09
2.39304e-09 0.0155805 7.08784e-09
9.32598e-10 0.0155805 7.18948e-09
1.45773e-09 0.0155805 7.24471e-09
1.97845e-09 0.0155805 7.14465e-09
2.24487e-09 0.0155805 7.03267e-09
2.60184e-09 0.0155805 6.96601e-09
7.44878e-10 0.0155805 7.46166e-09
1.49839e-09 0.0155805 7.37987e-09
2.06004e-09 0.0155805 7.20199e-09
2.16607e-09 0.0155805 7.05247e-09
2.58281e-09 0.0155805 7.09076e-09
9.32658e-10 0.0155805 7.48861e-09
1.52589e-09 0.0155805 7.22074e-09
1.95657e-09 0.0155805 7.40967e-09
2.20034e-09 0.0155805 7.32471e-09
2.4985e-09 0.0155805 7.24823e-09
1.03046e-09 0.0167673 5.7515e-09
1.55553e-09 0.0167673 5.8469e-09
1.92156e-09 0.0167673 5.54537e-09
2.2309e-09 0.0167673 5.29615e-09
2.44675e-09 0.0167673 5.55433e-09
9.57313e-10 0.0167673 5.71217e-09
1.47761e-09 0.0167673 5.61213e-09
1.90492e-09 0.0167673 5.55773e-09
2.20621e-09 0.0167673 5.54884e-09
2.58032e-09 0.0167673 5.45853e-09
1.01484e-09 0.0167673 5.78545e-09
1.45437e-09 0.0167673 5.75387e-09
1.88666e-09 0.0167673 5.62862e-09
2.23127e-09 0.0167673 5.48493e-09
2.86816e-09 0.0167673 5.29522e-09
1.13537e-09 0.0167673 5.65106e-09
1.37e-09 0.0167673 5.80344e-09
1.91555e-09 0.0167673 5.66408e-09
2.40207e-09 0.0167673 5.53791e-09
2.51194e-09 0.0167673 5.58607e-09
1.43654e-09 0.0167673 5.5936e-09
1.25183e-09 0.0167673 5.79539e-09
2.00348e-09 0.0167673 5.72009e-09
2.14217e-09 0.0167673 5.52737e-09
3.02368e-09 0.0167673 5.8036e-09
6.00899e-10 0.0179669 4.02402e-09
1.5401e-09 0.0179669 4.17092e-09
2.00589e-09 0.0179668 4.06668e-09
2.25757e-09 0.0179669 3.91164e-09
3.04911e-09 0.0179669 3.61605e-09
8.00869e-10 0.0179669 4.08231e-09
1.52126e-09 0.0179669 3.98528e-09
2.01928e-09 0.0179669 3.99612e-09
2.26178e-09 0.0179668 3.76024e-09
2.83517e-09 0.0179669 3.92991e-09
1.04213e-09 0.0179669 4.14754e-09
1.49703e-09 0.0179669 4.11347e-09
2.0596e-09 0.0179669 4.07033e-09
2.31209e-09 0.0179669 3.96075e-09
2.95185e-09 0.0179668 3.96336e-09
1.28841e-09 0.0179669 3.96798e-09
1.44616e-09 0.0179669 4.00182e-09
1.94657e-09 0.0179668 4.12847e-09
2.35737e-09 0.0179669 4.01117e-09
3.28439e-09 0.0179668 3.96911e-09
1.04721e-09 0.0179669 4.02092e-09
1.59596e-09 0.0179669 3.87668e-09
1.79154e-09 0.0179668 3.6982e-09
2.76328e-09 0.0179668 4.1138e-09
2.93332e-09 0.0179669 3.85352e-09
1.06427e-09 0.0191793 2.4996e-09
1.55996e-09 0.0191793 2.66057e-09
2.33216e-09 0.0191793 2.52021e-09
2.41292e-09 0.0191793 2.19821e-09
2.59214e-09 0.0191793 2.21113e-09
1.24279e-09 0.0191793 2.57431e-09
1.60832e-09 0.0191793 2.38775e-09
2.08058e-09 0.0191793 2.41897e-09
2.40161e-09 0.0191793 2.32254e-09
3.14224e-09 0.0191793 2.21959e-09
1.37079e-09 0.0191793 2.27688e-09
1.72728e-09 0.0191793 2.29599e-09
2.10725e-09 0.0191793 2.32162e-09
2.53474e-09 0.0191793 2.34611e-09
2.85284e-09 0.0191793 2.29725e-09
1.49745e-09 0.0191793 2.27513e-09
1.75394e-09 0.0191793 2.01895e-09
2.08204e-09 0.0191793 2.22231e-09
2.67024e-09 0.0191793 2.12705e-09
3.03416e-09 0.0191793 2.28675e-09
1.75532e-09 0.0191793 2.08571e-09
1.69757e-09 0.0191793 2.19568e-09
2.19462e-09 0.0191793 2.08441e-09
2.67245e-09 0.0191793 2.43374e-09
2.9863e-09 0.0191793 2.2036e-09
1.27728e-09 0.0204048 6.02695e-10
1.84519e-09 0.0204048 6.8642e-10
2.21149e-09 0.0204048 6.79682e-10
2.5544e-09 0.0204048 3.72413e-10
3.34982e-09 0.0204048 5.44601e-10
1.49154e-09 0.0204048 5.29482e-10
1.75106e-09 0.0204048 4.43939e-10
2.22932e-09 0.0204048 7.4184e-10
2.56676e-09 0.0204048 4.51068e-10
3.10961e-09 0.0204048 3.48419e-10
1.62289e-09 0.0204048 4.62189e-10
1.8263e-09 0.0204048 3.19542e-10
2.23045e-09 0.0204048 2.38101e-10
2.77532e-09 0.0204048 5.41907e-10
3.25598e-09 0.0204048 5.20942e-10
1.61841e-09 0.0204048 2.80848e-10
1.85335e-09 0.0204048 3.93307e-10
2.32611e-09 0.0204048 3.08128e-10
2.92071e-09 0.0204048 3.14386e-10
3.20169e-09 0.0204048 5.70356e-10
1.95252e-09 0.0204048 6.55634e-10
1.91877e-09 0.0204048 -4.13678e-11
2.27928e-09 0.0204048 5.36079e-10
2.86623e-09 0.0204048 5.4088e-10
3.60913e-09 0.0204048 7.15023e-10
1.20535e-09 0.0216435 -1.57466e-09
1.95277e-09 0.0216435 -1.24281e-09
2.21138e-09 0.0216435 -1.71933e-09
2.96392e-09 0.0216435 -1.71734e-09
3.67952e-09 0.0216435 -1.80987e-09
1.70846e-09 0.0216435 -1.15987e-09
2.06401e-09 0.0216435 -1.56876e-09
2.5906e-09 0.0216435 -1.41897e-09
2.83483e-09 0.0216435 -1.52922e-09
3.57861e-09 0.0216435 -1.78263e-09
1.37234e-09 0.0216435 -1.47115e-09
2.09291e-09 0.0216435 -1.41885e-09
2.5469e-09 0.0216435 -1.48352e-09
3.02917e-09 0.0216435 -1.66743e-09
3.68042e-09 0.0216435 -1.60059e-09
1.84594e-09 0.0216435 -1.37687e-09
1.99598e-09 0.0216435 -1.57876e-09
2.54357e-09 0.0216435 -1.21978e-09
3.01442e-09 0.0216435 -1.24608e-09
3.8435e-09 0.0216435 -1.37406e-09
1.51338e-09 0.0216435 -1.30873e-09
2.13415e-09 0.0216435 -1.44484e-09
2.60281e-09 0.0216435 -1.60018e-09
3.05975e-09 0.0216435 -1.20304e-09
3.31419e-09 0.0216435 -1.2785e-09
1.86807e-09 0.0228956 -2.99558e-09
2.19796e-09 0.0228956 -3.24529e-09
2.8308e-09 0.0228956 -3.26814e-09
3.00505e-09 0.0228956 -3.21721e-09
3.62105e-09 0.0228956 -3.53585e-09
1.91783e-09 0.0228956 -3.25229e-09
2.18306e-09 0.0228956 -3.27048e-09
2.72487e-09 0.0228956 -3.48997e-09
2.9812e-09 0.0228956 -3.26667e-09
4.15982e-09 0.0228956 -3.54772e-09
1.81028e-09 0.0228956 -3.26573e-09
2.25992e-09 0.0228956 -3.17455e-09
2.62788e-09 0.0228956 -3.10953e-09
3.29992e-09 0.0228956 -3.42158e-09
3.80275e-09 0.0228956 -3.40986e-09
1.78046e-09 0.0228956 -3.28528e-09
2.20718e-09 0.0228956 -3.16846e-09
2.65388e-09 0.0228956 -3.04654e-09
3.13163e-09 0.0228956 -3.03916e-09
3.67836e-09 0.0228956 -3.18206e-09
1.79938e-09 0.0228956 -3.26734e-09
2.15794e-09 0.0228956 -3.22193e-09
2.47901e-09 0.0228956 -2.85774e-09
2.81257e-09 0.0228956 -3.17255e-09
3.84588e-09 0.0228956 -2.94182e-09
2.27697e-09 0.0241608 -4.78439e-09
2.11258e-09 0.0241608 -4.93235e-09
3.207e-09 0.0241608 -4.73033e-09
3.20068e-09 0.0241608 -4.90146e-09
4.00646e-09 0.0241608 -4.78043e-09
2.11121e-09 0.0241608 -4.67436e-09
2.3834e-09 0.0241608 -4.84216e-09
2.94394e-09 0.0241608 -4.90121e-09
3.25583e-09 0.0241608 -4.78027e-09
3.80306e-09 0.0241608 -4.62083e-09
2.16824e-09 0.0241608 -4.77715e-09
2.43299e-09 0.0241608 -4.7638e-09
2.74703e-09 0.0241608 -4.69258e-09
3.25078e-09 0.0241608 -4.61833e-09
4.15123e-09 0.0241608 -4.84938e-09
1.88124e-09 0.0241608 -4.53308e-09
2.4849e-09 0.0241608 -4.52242e-09
2.82167e-09 0.0241608 -4.58769e-09
2.98688e-09 0.0241608 -4.52206e-09
3.87673e-09 0.0241608 -4.54518e-09
2.17273e-09 0.0241608 -4.23952e-09
2.35593e-09 0.0241608 -4.70947e-09
2.71407e-09 0.0241608 -4.40862e-09
3.24937e-09 0.0241608 -4.41187e-09
3.38895e-09 0.0241608 -4.39524e-09
1.85185e-09 0.0254386 -5.9165e-09
2.8208e-09 0.0254386 -6.02448e-09
3.01177e-09 0.0254386 -6.4851e-09
3.59944e-09 0.0254386 -6.00568e-09
3.89764e-09 0.0254386 -5.39486e-09
2.29565e-09 0.0254386 -6.03738e-09
2.68016e-09 0.0254386 -6.13967e-09
3.07933e-09 0.0254386 -5.9287e-09
3.52543e-09 0.0254386 -5.79085e-09
3.71205e-09 0.0254386 -5.70502e-09
2.28878e-09 0.0254386 -6.03044e-09
2.75474e-09 0.0254386 -5.86276e-09
2.99368e-09 0.0254386 -5.73334e-09
3.16774e-09 0.0254386 -5.8499e-09
4.19794e-09 0.0254386 -5.64285e-09
2.37556e-09 0.0254386 -5.78479e-09
2.70983e-09 0.0254386 -5.78406e-09
2.82312e-09 0.0254386 -5.70081e-09
3.13611e-09 0.0254386 -5.69136e-09
3.72408e-09 0.0254386 -5.74999e-09
3.65661e-09 0.0254386 -5.97346e-09
2.57982e-09 0.0254386 -5.67868e-09
2.94908e-09 0.0254386 -5.63928e-09
3.13404e-09 0.0254386 -5.82249e-09
2.84877e-09 0.0254386 -5.47272e-09
2.6988e-09 0.0267284 -6.87494e-09
2.82849e-09 0.0267284 -6.73291e-09
3.12366e-09 0.0267284 -6.83065e-09
4.09088e-09 0.0267284 -6.80472e-09
4.3334e-09 0.0267284 -6.95249e-09
2.81316e-09 0.0267284 -6.78711e-09
2.82499e-09 0.0267284 -6.81541e-09
3.27389e-09 0.0267284 -6.71281e-09
3.39736e-09 0.0267284 -6.77068e-09
4.18693e-09 0.0267284 -6.48841e-09
2.77653e-09 0.0267284 -6.84906e-09
3.09342e-09 0.0267284 -6.57775e-09
3.23214e-09 0.0267284 -6.56207e-09
3.08482e-09 0.0267284 -6.41541e-09
3.88607e-09 0.0267284 -6.75626e-09
3.36133e-09 0.0267284 -6.6663e-09
2.83614e-09 0.0267284 -6.67957e-09
3.03175e-09 0.0267284 -6.57279e-09
2.98652e-09 0.0267284 -6.63123e-09
3.85254e-09 0.0267284 -6.36775e-09
3.14104e-09 0.0267284 -7.00928e-09
3.20221e-09 0.0267284 -6.80922e-09
2.92898e-09 0.0267284 -6.72321e-09